Title Card Required                                                     
SP        RB3LYP                                                      6-31G(d)            
Number of atoms                            I               16
Info1-9                                    I   N=           9
          26          25           0           0           0         111
           1          18        -502
Charge                                     I                0
Multiplicity                               I                1
Number of electrons                        I               50
Number of alpha electrons                  I               25
Number of beta electrons                   I               25
Number of basis functions                  I              110
Number of independent functions            I              110
Number of point charges in /Mol/           I                0
Number of translation vectors              I                0
Atomic numbers                             I   N=          16
           7           6           6           1           1           1
           1           1           1           1           8           6
           7           1           1           1
Nuclear charges                            R   N=          16
  7.00000000E+00  6.00000000E+00  6.00000000E+00  1.00000000E+00  1.00000000E+00
  1.00000000E+00  1.00000000E+00  1.00000000E+00  1.00000000E+00  1.00000000E+00
  8.00000000E+00  6.00000000E+00  7.00000000E+00  1.00000000E+00  1.00000000E+00
  1.00000000E+00
Current cartesian coordinates              R   N=          48
 -2.26389191E+00  1.57792132E+00  0.00000000E+00  0.00000000E+00  0.00000000E+00
  0.00000000E+00  2.36593712E+00  1.64784119E+00  0.00000000E+00 -1.76276787E+00
  3.39851069E+00 -7.34432613E-02 -3.25323962E+00  1.26008537E+00  1.57836507E+00
 -1.73344578E-04 -1.01100346E+00  1.75110939E+00 -1.73344578E-04 -1.01100346E+00
 -1.75110939E+00  1.82947633E+00  3.59738524E+00  0.00000000E+00  3.46378126E+00
  1.25088322E+00  1.65096177E+00  3.46378126E+00  1.25088322E+00 -1.65096177E+00
  7.82157646E+00 -2.96687003E+00 -4.26700161E+00  6.67073325E+00 -4.03267557E+00
 -2.59270425E+00  4.24243517E+00 -4.60148313E+00 -2.77600769E+00  7.65948897E+00
 -4.53209451E+00 -9.01120669E-01  3.38883191E+00 -5.55869325E+00 -1.38814057E+00
  3.26106499E+00 -4.07409948E+00 -4.30239030E+00
Force Field                                I                0
Int Atom Types                             I   N=          16
           0           0           0           0           0           0
           0           0           0           0           0           0
           0           0           0           0
MM charges                                 R   N=          16
  0.00000000E+00  0.00000000E+00  0.00000000E+00  0.00000000E+00  0.00000000E+00
  0.00000000E+00  0.00000000E+00  0.00000000E+00  0.00000000E+00  0.00000000E+00
  0.00000000E+00  0.00000000E+00  0.00000000E+00  0.00000000E+00  0.00000000E+00
  0.00000000E+00
Integer atomic weights                     I   N=          16
          14          12          12           1           1           1
           1           1           1           1          16          12
          14           1           1           1
Real atomic weights                        R   N=          16
  1.40030740E+01  1.20000000E+01  1.20000000E+01  1.00782504E+00  1.00782504E+00
  1.00782504E+00  1.00782504E+00  1.00782504E+00  1.00782504E+00  1.00782504E+00
  1.59949146E+01  1.20000000E+01  1.40030740E+01  1.00782504E+00  1.00782504E+00
  1.00782504E+00
Atom fragment info                         I   N=          16
           0           0           0           0           0           0
           0           0           0           0           0           0
           0           0           0           0
Atom residue num                           I   N=          16
           0           0           0           0           0           0
           0           0           0           0           0           0
           0           0           0           0
Nuclear spins                              I   N=          16
           2           0           0           1           1           1
           1           1           1           1           0           0
           2           1           1           1
Nuclear ZEff                               R   N=          16
 -4.55000000E+00 -3.60000000E+00 -3.60000000E+00 -1.00000000E+00 -1.00000000E+00
 -1.00000000E+00 -1.00000000E+00 -1.00000000E+00 -1.00000000E+00 -1.00000000E+00
 -5.60000000E+00 -3.60000000E+00 -4.55000000E+00 -1.00000000E+00 -1.00000000E+00
 -1.00000000E+00
Nuclear ZNuc                               R   N=          16
  7.00000000E+00  6.00000000E+00  6.00000000E+00  1.00000000E+00  1.00000000E+00
  1.00000000E+00  1.00000000E+00  1.00000000E+00  1.00000000E+00  1.00000000E+00
  8.00000000E+00  6.00000000E+00  7.00000000E+00  1.00000000E+00  1.00000000E+00
  1.00000000E+00
Nuclear QMom                               R   N=          16
  2.04400000E+00  0.00000000E+00  0.00000000E+00  0.00000000E+00  0.00000000E+00
  0.00000000E+00  0.00000000E+00  0.00000000E+00  0.00000000E+00  0.00000000E+00
  0.00000000E+00  0.00000000E+00  2.04400000E+00  0.00000000E+00  0.00000000E+00
  0.00000000E+00
Nuclear GFac                               R   N=          16
  4.03761000E-01  0.00000000E+00  0.00000000E+00  2.79284600E+00  2.79284600E+00
  2.79284600E+00  2.79284600E+00  2.79284600E+00  2.79284600E+00  2.79284600E+00
  0.00000000E+00  0.00000000E+00  4.03761000E-01  2.79284600E+00  2.79284600E+00
  2.79284600E+00
MicOpt                                     I   N=          16
          -1          -1          -1          -1          -1          -1
          -1          -1          -1          -1          -1          -1
          -1          -1          -1          -1
Number of contracted shells                I               44
Number of primitive shells                 I              106
Pure/Cartesian d shells                    I                1
Pure/Cartesian f shells                    I                0
Highest angular momentum                   I                2
Largest degree of contraction              I                6
Shell types                                I   N=          44
           0          -1          -1           2           0          -1
          -1           2           0          -1          -1           2
           0           0           0           0           0           0
           0           0           0           0           0           0
           0           0           0          -1          -1           2
           0          -1          -1           2           0          -1
          -1           2           0           0           0           0
           0           0
Number of primitives per shell             I   N=          44
           6           3           1           1           6           3
           1           1           6           3           1           1
           3           1           3           1           3           1
           3           1           3           1           3           1
           3           1           6           3           1           1
           6           3           1           1           6           3
           1           1           3           1           3           1
           3           1
Shell to atom map                          I   N=          44
           1           1           1           1           2           2
           2           2           3           3           3           3
           4           4           5           5           6           6
           7           7           8           8           9           9
          10          10          11          11          11          11
          12          12          12          12          13          13
          13          13          14          14          15          15
          16          16
Primitive exponents                        R   N=         106
  4.17351146E+03  6.27457911E+02  1.42902093E+02  4.02343293E+01  1.28202129E+01
  4.39043701E+00  1.16263619E+01  2.71627981E+00  7.72218397E-01  2.12031498E-01
  8.00000000E-01  3.04752488E+03  4.57369518E+02  1.03948685E+02  2.92101553E+01
  9.28666296E+00  3.16392696E+00  7.86827235E+00  1.88128854E+00  5.44249258E-01
  1.68714478E-01  8.00000000E-01  3.04752488E+03  4.57369518E+02  1.03948685E+02
  2.92101553E+01  9.28666296E+00  3.16392696E+00  7.86827235E+00  1.88128854E+00
  5.44249258E-01  1.68714478E-01  8.00000000E-01  1.87311370E+01  2.82539436E+00
  6.40121692E-01  1.61277759E-01  1.87311370E+01  2.82539436E+00  6.40121692E-01
  1.61277759E-01  1.87311370E+01  2.82539436E+00  6.40121692E-01  1.61277759E-01
  1.87311370E+01  2.82539436E+00  6.40121692E-01  1.61277759E-01  1.87311370E+01
  2.82539436E+00  6.40121692E-01  1.61277759E-01  1.87311370E+01  2.82539436E+00
  6.40121692E-01  1.61277759E-01  1.87311370E+01  2.82539436E+00  6.40121692E-01
  1.61277759E-01  5.48467166E+03  8.25234946E+02  1.88046958E+02  5.29645000E+01
  1.68975704E+01  5.79963534E+00  1.55396162E+01  3.59993359E+00  1.01376175E+00
  2.70005823E-01  8.00000000E-01  3.04752488E+03  4.57369518E+02  1.03948685E+02
  2.92101553E+01  9.28666296E+00  3.16392696E+00  7.86827235E+00  1.88128854E+00
  5.44249258E-01  1.68714478E-01  8.00000000E-01  4.17351146E+03  6.27457911E+02
  1.42902093E+02  4.02343293E+01  1.28202129E+01  4.39043701E+00  1.16263619E+01
  2.71627981E+00  7.72218397E-01  2.12031498E-01  8.00000000E-01  1.87311370E+01
  2.82539436E+00  6.40121692E-01  1.61277759E-01  1.87311370E+01  2.82539436E+00
  6.40121692E-01  1.61277759E-01  1.87311370E+01  2.82539436E+00  6.40121692E-01
  1.61277759E-01
Contraction coefficients                   R   N=         106
  1.83477216E-03  1.39946270E-02  6.85865518E-02  2.32240873E-01  4.69069948E-01
  3.60455199E-01 -1.14961182E-01 -1.69117479E-01  1.14585195E+00  1.00000000E+00
  1.00000000E+00  1.83473713E-03  1.40373228E-02  6.88426223E-02  2.32184443E-01
  4.67941348E-01  3.62311985E-01 -1.19332420E-01 -1.60854152E-01  1.14345644E+00
  1.00000000E+00  1.00000000E+00  1.83473713E-03  1.40373228E-02  6.88426223E-02
  2.32184443E-01  4.67941348E-01  3.62311985E-01 -1.19332420E-01 -1.60854152E-01
  1.14345644E+00  1.00000000E+00  1.00000000E+00  3.34946043E-02  2.34726953E-01
  8.13757326E-01  1.00000000E+00  3.34946043E-02  2.34726953E-01  8.13757326E-01
  1.00000000E+00  3.34946043E-02  2.34726953E-01  8.13757326E-01  1.00000000E+00
  3.34946043E-02  2.34726953E-01  8.13757326E-01  1.00000000E+00  3.34946043E-02
  2.34726953E-01  8.13757326E-01  1.00000000E+00  3.34946043E-02  2.34726953E-01
  8.13757326E-01  1.00000000E+00  3.34946043E-02  2.34726953E-01  8.13757326E-01
  1.00000000E+00  1.83107443E-03  1.39501722E-02  6.84450781E-02  2.32714336E-01
  4.70192898E-01  3.58520853E-01 -1.10777550E-01 -1.48026263E-01  1.13076702E+00
  1.00000000E+00  1.00000000E+00  1.83473713E-03  1.40373228E-02  6.88426223E-02
  2.32184443E-01  4.67941348E-01  3.62311985E-01 -1.19332420E-01 -1.60854152E-01
  1.14345644E+00  1.00000000E+00  1.00000000E+00  1.83477216E-03  1.39946270E-02
  6.85865518E-02  2.32240873E-01  4.69069948E-01  3.60455199E-01 -1.14961182E-01
 -1.69117479E-01  1.14585195E+00  1.00000000E+00  1.00000000E+00  3.34946043E-02
  2.34726953E-01  8.13757326E-01  1.00000000E+00  3.34946043E-02  2.34726953E-01
  8.13757326E-01  1.00000000E+00  3.34946043E-02  2.34726953E-01  8.13757326E-01
  1.00000000E+00
P(S=P) Contraction coefficients            R   N=         106
  0.00000000E+00  0.00000000E+00  0.00000000E+00  0.00000000E+00  0.00000000E+00
  0.00000000E+00  6.75797439E-02  3.23907296E-01  7.40895140E-01  1.00000000E+00
  0.00000000E+00  0.00000000E+00  0.00000000E+00  0.00000000E+00  0.00000000E+00
  0.00000000E+00  0.00000000E+00  6.89990666E-02  3.16423961E-01  7.44308291E-01
  1.00000000E+00  0.00000000E+00  0.00000000E+00  0.00000000E+00  0.00000000E+00
  0.00000000E+00  0.00000000E+00  0.00000000E+00  6.89990666E-02  3.16423961E-01
  7.44308291E-01  1.00000000E+00  0.00000000E+00  0.00000000E+00  0.00000000E+00
  0.00000000E+00  0.00000000E+00  0.00000000E+00  0.00000000E+00  0.00000000E+00
  0.00000000E+00  0.00000000E+00  0.00000000E+00  0.00000000E+00  0.00000000E+00
  0.00000000E+00  0.00000000E+00  0.00000000E+00  0.00000000E+00  0.00000000E+00
  0.00000000E+00  0.00000000E+00  0.00000000E+00  0.00000000E+00  0.00000000E+00
  0.00000000E+00  0.00000000E+00  0.00000000E+00  0.00000000E+00  0.00000000E+00
  0.00000000E+00  0.00000000E+00  0.00000000E+00  0.00000000E+00  0.00000000E+00
  0.00000000E+00  0.00000000E+00  7.08742682E-02  3.39752839E-01  7.27158577E-01
  1.00000000E+00  0.00000000E+00  0.00000000E+00  0.00000000E+00  0.00000000E+00
  0.00000000E+00  0.00000000E+00  0.00000000E+00  6.89990666E-02  3.16423961E-01
  7.44308291E-01  1.00000000E+00  0.00000000E+00  0.00000000E+00  0.00000000E+00
  0.00000000E+00  0.00000000E+00  0.00000000E+00  0.00000000E+00  6.75797439E-02
  3.23907296E-01  7.40895140E-01  1.00000000E+00  0.00000000E+00  0.00000000E+00
  0.00000000E+00  0.00000000E+00  0.00000000E+00  0.00000000E+00  0.00000000E+00
  0.00000000E+00  0.00000000E+00  0.00000000E+00  0.00000000E+00  0.00000000E+00
  0.00000000E+00
Coordinates of each shell                  R   N=         132
 -2.26389191E+00  1.57792132E+00  0.00000000E+00 -2.26389191E+00  1.57792132E+00
  0.00000000E+00 -2.26389191E+00  1.57792132E+00  0.00000000E+00 -2.26389191E+00
  1.57792132E+00  0.00000000E+00  0.00000000E+00  0.00000000E+00  0.00000000E+00
  0.00000000E+00  0.00000000E+00  0.00000000E+00  0.00000000E+00  0.00000000E+00
  0.00000000E+00  0.00000000E+00  0.00000000E+00  0.00000000E+00  2.36593712E+00
  1.64784119E+00  0.00000000E+00  2.36593712E+00  1.64784119E+00  0.00000000E+00
  2.36593712E+00  1.64784119E+00  0.00000000E+00  2.36593712E+00  1.64784119E+00
  0.00000000E+00 -1.76276787E+00  3.39851069E+00 -7.34432613E-02 -1.76276787E+00
  3.39851069E+00 -7.34432613E-02 -3.25323962E+00  1.26008537E+00  1.57836507E+00
 -3.25323962E+00  1.26008537E+00  1.57836507E+00 -1.73344578E-04 -1.01100346E+00
  1.75110939E+00 -1.73344578E-04 -1.01100346E+00  1.75110939E+00 -1.73344578E-04
 -1.01100346E+00 -1.75110939E+00 -1.73344578E-04 -1.01100346E+00 -1.75110939E+00
  1.82947633E+00  3.59738524E+00  0.00000000E+00  1.82947633E+00  3.59738524E+00
  0.00000000E+00  3.46378126E+00  1.25088322E+00  1.65096177E+00  3.46378126E+00
  1.25088322E+00  1.65096177E+00  3.46378126E+00  1.25088322E+00 -1.65096177E+00
  3.46378126E+00  1.25088322E+00 -1.65096177E+00  7.82157646E+00 -2.96687003E+00
 -4.26700161E+00  7.82157646E+00 -2.96687003E+00 -4.26700161E+00  7.82157646E+00
 -2.96687003E+00 -4.26700161E+00  7.82157646E+00 -2.96687003E+00 -4.26700161E+00
  6.67073325E+00 -4.03267557E+00 -2.59270425E+00  6.67073325E+00 -4.03267557E+00
 -2.59270425E+00  6.67073325E+00 -4.03267557E+00 -2.59270425E+00  6.67073325E+00
 -4.03267557E+00 -2.59270425E+00  4.24243517E+00 -4.60148313E+00 -2.77600769E+00
  4.24243517E+00 -4.60148313E+00 -2.77600769E+00  4.24243517E+00 -4.60148313E+00
 -2.77600769E+00  4.24243517E+00 -4.60148313E+00 -2.77600769E+00  7.65948897E+00
 -4.53209451E+00 -9.01120669E-01  7.65948897E+00 -4.53209451E+00 -9.01120669E-01
  3.38883191E+00 -5.55869325E+00 -1.38814057E+00  3.38883191E+00 -5.55869325E+00
 -1.38814057E+00  3.26106499E+00 -4.07409948E+00 -4.30239030E+00  3.26106499E+00
 -4.07409948E+00 -4.30239030E+00
Constraint Structure                       R   N=          48
 -2.26389191E+00  1.57792132E+00  0.00000000E+00  0.00000000E+00  0.00000000E+00
  0.00000000E+00  2.36593712E+00  1.64784119E+00  0.00000000E+00 -1.76276787E+00
  3.39851069E+00 -7.34432613E-02 -3.25323962E+00  1.26008537E+00  1.57836507E+00
 -1.73344578E-04 -1.01100346E+00  1.75110939E+00 -1.73344578E-04 -1.01100346E+00
 -1.75110939E+00  1.82947633E+00  3.59738524E+00  0.00000000E+00  3.46378126E+00
  1.25088322E+00  1.65096177E+00  3.46378126E+00  1.25088322E+00 -1.65096177E+00
  7.82157646E+00 -2.96687003E+00 -4.26700161E+00  6.67073325E+00 -4.03267557E+00
 -2.59270425E+00  4.24243517E+00 -4.60148313E+00 -2.77600769E+00  7.65948897E+00
 -4.53209451E+00 -9.01120669E-01  3.38883191E+00 -5.55869325E+00 -1.38814057E+00
  3.26106499E+00 -4.07409948E+00 -4.30239030E+00
Num ILSW                                   I              100
ILSW                                       I   N=         100
           0           1           0           0           2           0
           0           0           0           0         402          -1
           0           0           0           0           0           0
           0           0           1           0           0           0
           1           1           0           0           0           0
           0           0      100000           0          -1           0
           0           0           0           0           0           0
           0           0           0           1           0           0
           0           0           1           0           0           0
           0           0           4          41           0           0
           0           0           5           0           0           0
           0           0           0           0           0           0
           0           0           0           0           0           0
           0           0           0           0           0           0
           0           0           0           0           0           0
           0           0           0           0           0           0
           0           0           0           0
Num RLSW                                   I               41
RLSW                                       R   N=          41
  8.00000000E-01  7.20000000E-01  1.00000000E+00  8.10000000E-01  2.00000000E-01
  0.00000000E+00  0.00000000E+00  1.00000000E+00  0.00000000E+00  0.00000000E+00
  0.00000000E+00  0.00000000E+00  1.00000000E+00  0.00000000E+00  0.00000000E+00
  0.00000000E+00  0.00000000E+00  1.00000000E+00  0.00000000E+00  0.00000000E+00
  0.00000000E+00  0.00000000E+00  1.00000000E+00  0.00000000E+00  0.00000000E+00
  0.00000000E+00  0.00000000E+00  1.00000000E+00  0.00000000E+00  0.00000000E+00
  0.00000000E+00  0.00000000E+00  1.00000000E+00  0.00000000E+00  0.00000000E+00
  0.00000000E+00  0.00000000E+00  0.00000000E+00  1.00000000E+00  1.00000000E+00
  0.00000000E+00
MxBond                                     I                4
NBond                                      I   N=          16
           3           4           4           1           1           1
           1           1           1           1           1           3
           3           1           1           1
IBond                                      I   N=          64
           2           4           5           0           1           3
           6           7           2           8           9          10
           1           0           0           0           1           0
           0           0           2           0           0           0
           2           0           0           0           3           0
           0           0           3           0           0           0
           3           0           0           0          12           0
           0           0          11          13          14           0
          12          15          16           0          12           0
           0           0          13           0           0           0
          13           0           0           0
RBond                                      R   N=          64
  1.00000000E+00  1.00000000E+00  1.00000000E+00  0.00000000E+00  1.00000000E+00
  1.00000000E+00  1.00000000E+00  1.00000000E+00  1.00000000E+00  1.00000000E+00
  1.00000000E+00  1.00000000E+00  1.00000000E+00  0.00000000E+00  0.00000000E+00
  0.00000000E+00  1.00000000E+00  0.00000000E+00  0.00000000E+00  0.00000000E+00
  1.00000000E+00  0.00000000E+00  0.00000000E+00  0.00000000E+00  1.00000000E+00
  0.00000000E+00  0.00000000E+00  0.00000000E+00  1.00000000E+00  0.00000000E+00
  0.00000000E+00  0.00000000E+00  1.00000000E+00  0.00000000E+00  0.00000000E+00
  0.00000000E+00  1.00000000E+00  0.00000000E+00  0.00000000E+00  0.00000000E+00
  2.00000000E+00  0.00000000E+00  0.00000000E+00  0.00000000E+00  2.00000000E+00
  1.41000000E+00  1.00000000E+00  0.00000000E+00  1.41000000E+00  1.00000000E+00
  1.00000000E+00  0.00000000E+00  1.00000000E+00  0.00000000E+00  0.00000000E+00
  0.00000000E+00  1.00000000E+00  0.00000000E+00  0.00000000E+00  0.00000000E+00
  1.00000000E+00  0.00000000E+00  0.00000000E+00  0.00000000E+00
Virial Ratio                               R      2.007592877660835E+00
SCF Energy                                 R     -3.050338997190807E+02
Total Energy                               R     -3.050338997190807E+02
RMS Density                                R      4.040401164663511E-09
External E-field                           R   N=          35
  0.00000000E+00  0.00000000E+00  0.00000000E+00  0.00000000E+00  0.00000000E+00
  0.00000000E+00  0.00000000E+00  0.00000000E+00  0.00000000E+00  0.00000000E+00
  0.00000000E+00  0.00000000E+00  0.00000000E+00  0.00000000E+00  0.00000000E+00
  0.00000000E+00  0.00000000E+00  0.00000000E+00  0.00000000E+00  0.00000000E+00
  0.00000000E+00  0.00000000E+00  0.00000000E+00  0.00000000E+00  0.00000000E+00
  0.00000000E+00  0.00000000E+00  0.00000000E+00  0.00000000E+00  0.00000000E+00
  0.00000000E+00  0.00000000E+00  0.00000000E+00  0.00000000E+00  0.00000000E+00
IOpCl                                      I                0
IROHF                                      I                0
Alpha Orbital Energies                     R   N=         110
 -1.91064994E+01 -1.43660129E+01 -1.42972123E+01 -1.02802815E+01 -1.01987417E+01
 -1.01660532E+01 -1.03362349E+00 -9.18222087E-01 -8.81234271E-01 -7.32381240E-01
 -6.34320724E-01 -6.11050601E-01 -5.67373893E-01 -5.02183813E-01 -4.94728262E-01
 -4.58332464E-01 -4.29690179E-01 -4.06547324E-01 -4.01666745E-01 -3.83137791E-01
 -3.58525742E-01 -3.47107651E-01 -2.71069773E-01 -2.48057003E-01 -2.21326143E-01
  3.37380212E-02  6.34630492E-02  8.36120668E-02  9.94645700E-02  1.10822417E-01
  1.39860272E-01  1.48940754E-01  1.75023415E-01  1.88586476E-01  1.93101724E-01
  2.36745911E-01  2.58114790E-01  2.81926861E-01  3.12630081E-01  3.62450856E-01
  4.95364446E-01  5.19112043E-01  5.37050900E-01  5.49809335E-01  5.52215851E-01
  6.41333499E-01  6.53679153E-01  6.83893622E-01  6.85588175E-01  7.03535206E-01
  7.23625408E-01  7.52143814E-01  7.69076629E-01  8.25108261E-01  8.36767673E-01
  8.57203883E-01  8.76322776E-01  8.81533624E-01  8.86124996E-01  8.91863203E-01
  9.12762045E-01  9.26554704E-01  9.52467223E-01  9.80424428E-01  9.95497871E-01
  1.00224108E+00  1.01666291E+00  1.04968425E+00  1.08062688E+00  1.22931796E+00
  1.30171832E+00  1.32081488E+00  1.38646353E+00  1.40987916E+00  1.42323993E+00
  1.46701329E+00  1.48691063E+00  1.63681303E+00  1.69047807E+00  1.80522897E+00
  1.81969283E+00  1.85867337E+00  1.90185076E+00  1.93007826E+00  1.96423075E+00
  2.01722571E+00  2.05219522E+00  2.11745030E+00  2.14031923E+00  2.17656558E+00
  2.24763076E+00  2.27863722E+00  2.31394856E+00  2.34305732E+00  2.38751461E+00
  2.41728098E+00  2.48587210E+00  2.49892885E+00  2.63677611E+00  2.64173009E+00
  2.69487793E+00  2.74898911E+00  2.92673280E+00  3.03985587E+00  3.74739884E+00
  3.79627835E+00  3.87014445E+00  4.17354578E+00  4.21123943E+00  4.45749868E+00
Alpha MO coefficients                      R   N=       12100
 -1.21764700E-06 -4.88529354E-06 -1.58495175E-06 -1.52852370E-06  4.94939093E-07
  3.47421174E-05  2.03278617E-05  4.24928253E-06 -5.38299041E-06 -3.51085701E-07
 -1.54641737E-06 -4.81915602E-06  4.07028325E-07 -9.08271009E-07 -1.42909832E-07
  3.33930918E-06  1.26459442E-05  2.36450770E-06  1.85280951E-06 -3.35209464E-06
 -9.45997049E-05 -1.02418442E-05 -1.14526388E-05  1.96743661E-05  2.49777639E-06
  6.44817481E-06  6.82794056E-06  7.04678187E-07 -4.97810997E-07 -1.38395051E-06
  1.69028651E-06  7.14915119E-06 -7.59392056E-06  7.52756053E-06 -2.56779856E-06
 -4.97226153E-05 -8.79960005E-06 -3.85158892E-05  3.72871184E-05  3.64962452E-06
 -1.39337022E-06  4.76012513E-06  2.25522445E-06  1.93395296E-06 -1.47898114E-07
 -4.50877719E-06 -7.10925605E-06  9.65646607E-07  2.60611262E-06  1.80885275E-07
  2.11988424E-06 -4.70428796E-06  4.70505229E-05  7.41451128E-06  2.68672172E-05
 -2.36179493E-06 -1.72312423E-05 -2.04674873E-05  1.04607471E-04  9.92767846E-01
  2.58063003E-02 -6.37459401E-04 -5.58258740E-04  8.71555694E-04  1.33887305E-02
 -8.26910953E-04 -6.87710856E-04  1.03413869E-03 -7.91939263E-03 -7.95708894E-03
 -7.79247943E-03  1.52380494E-04 -2.32159810E-04 -2.08119779E-04  2.49908150E-05
  5.59214253E-04 -7.80134862E-05 -1.99180096E-05  9.70345945E-06 -3.13203497E-03
 -8.80165339E-04 -1.32113932E-03  2.36760178E-03 -2.21801229E-04 -1.80227288E-04
 -4.72517410E-04 -2.38439247E-04  3.64395263E-04  3.52911925E-04 -1.46952502E-05
 -1.88174997E-05  3.55702807E-05 -2.19918900E-05  7.78824095E-05  4.85042051E-04
 -3.23112723E-05  3.03033095E-04 -6.70407036E-04 -4.25180824E-05 -5.92611474E-05
 -4.67012086E-05 -6.35991064E-05  1.21632443E-04  4.12398770E-05 -1.81134557E-05
 -5.57103816E-04  1.54522691E-04 -7.28638539E-05 -1.30292147E-04 -2.94556920E-04
  5.50107165E-06  2.12079689E-05  1.91153765E-06 -9.73164499E-07  1.02883971E-07
 -1.51053541E-04 -6.47653571E-05  3.84611692E-05 -3.20244949E-06  2.93170176E-06
  8.39720686E-06  1.37311004E-05  7.83510559E-06  1.27971656E-06  1.98320534E-06
 -4.97292487E-07 -1.40787965E-05  1.18571045E-05 -7.47318424E-06 -2.80989565E-07
  1.01745040E-04 -9.30605378E-05  7.11847216E-05  2.60791737E-07  1.44234508E-05
  7.17761154E-06 -3.02420839E-06 -1.36335433E-05  7.53474993E-08 -1.48772310E-06
 -9.36803379E-07 -5.82062241E-06  2.41973061E-06 -1.74991480E-05  3.66426205E-06
  5.68441050E-05  9.70413551E-06  3.77331601E-05 -3.31797668E-05 -5.99964832E-06
  9.59891619E-06 -4.63033428E-06 -2.58083161E-06  1.19034874E-06  8.35362072E-07
  4.61336215E-06  4.17489319E-06  8.43806699E-06 -1.27475232E-05 -7.51106169E-06
  2.77006119E-05  1.63936396E-05 -2.35751224E-05 -7.31588300E-06 -3.54260066E-05
  1.48189530E-06  1.79858578E-05  2.29708115E-05 -7.44073640E-05  1.30360006E-06
  1.73588984E-05  2.58769541E-05  1.12227367E-05 -1.08907343E-05 -1.29757441E-05
  5.72263266E-05  1.85815979E-05 -2.68242413E-06 -6.83843858E-05 -9.28984663E-06
  9.30061737E-06 -3.60063272E-05  3.15664597E-05  3.66017206E-06  5.87964525E-05
  2.81565172E-04 -3.25181145E-04 -6.75395438E-05 -5.33035675E-05 -7.42899024E-04
  2.71105586E-04  8.80501986E-05 -3.22012415E-05  7.87360352E-05  6.04672348E-06
  3.09137709E-05  2.40132763E-05  9.76943772E-06 -1.69653053E-05  9.92558932E-01
  3.49783810E-02 -5.55020532E-05 -4.11137516E-05  3.41665757E-05  4.80716049E-03
  5.37305673E-05  3.95297442E-05 -8.40018296E-06 -8.50938041E-03 -8.51793738E-03
 -8.47299689E-03  2.66150691E-06  1.18650489E-05 -3.36648824E-05 -8.70948820E-06
  5.95142762E-05  3.01379610E-04 -5.75599809E-04  3.02432724E-04 -6.04447304E-04
  9.92677958E-01  3.47621785E-02  5.90637536E-04  2.72869840E-04  9.31290232E-04
  3.84639047E-03 -2.51806418E-04 -5.08561009E-05 -3.31840214E-04 -8.30550798E-03
 -8.23703110E-03 -8.23259017E-03  5.26509295E-05 -3.66870584E-05  2.62584167E-06
 -6.59732963E-06  8.90564638E-05 -2.40815051E-04  1.59764104E-04 -2.12098715E-05
  5.86319446E-05  2.65996462E-04  1.02265659E-05  1.84886397E-04  7.36079142E-05
  1.96017940E-05 -3.69432029E-05 -6.22084811E-05  5.36117612E-08 -1.27607612E-05
  4.15906548E-06  6.67592701E-05  3.70165907E-05  3.95196068E-06 -8.33944182E-06
 -2.94209946E-04  5.89522395E-05  5.46935603E-05 -1.72022568E-05 -4.77721561E-05
 -5.27729535E-06 -9.84260681E-06 -6.92812443E-06  4.95115871E-06  1.07313565E-05
  2.70728504E-04 -4.42480581E-04  2.60583601E-04 -3.87012513E-04 -5.83088313E-05
 -8.20284854E-05  1.48645331E-05 -6.39286143E-05 -8.98756979E-06  8.33710287E-05
  2.45727061E-05 -2.04922843E-06  1.12930029E-05  3.76387164E-05 -4.20749742E-08
 -5.63581669E-07 -2.22604104E-07  5.82678144E-08 -2.32484120E-07  4.67091686E-06
 -5.95533999E-07 -4.26001763E-10  1.68153475E-06  1.75009204E-07 -1.66778768E-07
  4.41764175E-08  8.29114588E-08 -9.49540139E-08  1.95898994E-07  4.12798792E-07
  9.36109250E-07 -2.56704853E-06  5.05314120E-07 -7.88579039E-07  4.29084237E-06
 -1.59576723E-06 -7.67119175E-06  4.44721887E-06  1.18579794E-06  1.02866011E-06
  1.07807801E-06  5.46587851E-07  7.43596330E-07  6.28866202E-07  5.91864526E-07
  3.25085683E-06  1.34911591E-06 -1.31907000E-06 -1.39411579E-06 -2.52460685E-05
 -7.48315032E-06  3.02948552E-06  4.23335253E-06  4.37593292E-07  2.77616218E-06
  3.46533306E-06 -5.77518278E-07  4.14952198E-07 -7.83276380E-07 -7.20586756E-07
 -3.61250517E-06 -1.34601205E-06  2.52966271E-06 -7.42096401E-06  2.20573024E-05
 -1.66356177E-06 -5.74313737E-07 -7.26774009E-06 -4.35620025E-06  2.33471698E-06
 -5.24473560E-05 -1.41995074E-05  8.05304230E-05  1.38315088E-05 -5.25306038E-06
 -6.56711090E-06 -8.62772807E-06  6.79913988E-06  6.31469106E-06 -3.62698255E-06
 -5.53601669E-06 -8.38545233E-06  1.31877873E-05  9.59895980E-07  1.91857862E-05
  1.29266057E-04 -1.77384548E-04  1.37971728E-05 -1.93619394E-04 -1.31846775E-05
  3.18910535E-06 -1.18582297E-05 -9.84351114E-06 -3.48876576E-06  5.67622089E-07
  1.53750447E-05  3.67653592E-05 -1.00299154E-05  5.70863551E-05 -2.91741736E-05
 -4.03708369E-04 -3.10151090E-05 -2.85276063E-04  2.39928138E-04  2.70307339E-05
  4.85978014E-06  4.20041651E-05  1.86201671E-05 -1.55228586E-06 -7.20534812E-06
 -5.53570973E-06 -6.04363031E-05  5.86050889E-06 -1.06109544E-06  1.66005154E-05