Title Card Required                                                     
SP        RB3LYP                                                      6-31G(d)            
Number of atoms                            I                6
Info1-9                                    I   N=           9
          16          15           0           0           0         110
           1          18        -502
Charge                                     I                0
Multiplicity                               I                1
Number of electrons                        I               24
Number of alpha electrons                  I               12
Number of beta electrons                   I               12
Number of basis functions                  I               51
Number of independent functions            I               51
Number of point charges in /Mol/           I                0
Number of translation vectors              I                0
Atomic numbers                             I   N=           6
           8           6           7           1           1           1
Nuclear charges                            R   N=           6
  8.00000000E+00  6.00000000E+00  7.00000000E+00  1.00000000E+00  1.00000000E+00
  1.00000000E+00
Current cartesian coordinates              R   N=          18
  7.82157646E+00 -2.96687003E+00 -4.26700161E+00  6.67073325E+00 -4.03267557E+00
 -2.59270425E+00  4.24243517E+00 -4.60148313E+00 -2.77600769E+00  7.65948897E+00
 -4.53209451E+00 -9.01120669E-01  3.38883191E+00 -5.55869325E+00 -1.38814057E+00
  3.26106499E+00 -4.07409948E+00 -4.30239030E+00
Force Field                                I                0
Int Atom Types                             I   N=           6
           0           0           0           0           0           0
MM charges                                 R   N=           6
  0.00000000E+00  0.00000000E+00  0.00000000E+00  0.00000000E+00  0.00000000E+00
  0.00000000E+00
Integer atomic weights                     I   N=           6
          16          12          14           1           1           1
Real atomic weights                        R   N=           6
  1.59949146E+01  1.20000000E+01  1.40030740E+01  1.00782504E+00  1.00782504E+00
  1.00782504E+00
Atom fragment info                         I   N=           6
           0           0           0           0           0           0
Atom residue num                           I   N=           6
           0           0           0           0           0           0
Nuclear spins                              I   N=           6
           0           0           2           1           1           1
Nuclear ZEff                               R   N=           6
 -5.60000000E+00 -3.60000000E+00 -4.55000000E+00 -1.00000000E+00 -1.00000000E+00
 -1.00000000E+00
Nuclear ZNuc                               R   N=           6
  8.00000000E+00  6.00000000E+00  7.00000000E+00  1.00000000E+00  1.00000000E+00
  1.00000000E+00
Nuclear QMom                               R   N=           6
  0.00000000E+00  0.00000000E+00  2.04400000E+00  0.00000000E+00  0.00000000E+00
  0.00000000E+00
Nuclear GFac                               R   N=           6
  0.00000000E+00  0.00000000E+00  4.03761000E-01  2.79284600E+00  2.79284600E+00
  2.79284600E+00
MicOpt                                     I   N=           6
          -1          -1          -1          -1          -1          -1
Number of contracted shells                I               18
Number of primitive shells                 I               45
Pure/Cartesian d shells                    I                1
Pure/Cartesian f shells                    I                0
Highest angular momentum                   I                2
Largest degree of contraction              I                6
Shell types                                I   N=          18
           0          -1          -1           2           0          -1
          -1           2           0          -1          -1           2
           0           0           0           0           0           0
Number of primitives per shell             I   N=          18
           6           3           1           1           6           3
           1           1           6           3           1           1
           3           1           3           1           3           1
Shell to atom map                          I   N=          18
           1           1           1           1           2           2
           2           2           3           3           3           3
           4           4           5           5           6           6
Primitive exponents                        R   N=          45
  5.48467166E+03  8.25234946E+02  1.88046958E+02  5.29645000E+01  1.68975704E+01
  5.79963534E+00  1.55396162E+01  3.59993359E+00  1.01376175E+00  2.70005823E-01
  8.00000000E-01  3.04752488E+03  4.57369518E+02  1.03948685E+02  2.92101553E+01
  9.28666296E+00  3.16392696E+00  7.86827235E+00  1.88128854E+00  5.44249258E-01
  1.68714478E-01  8.00000000E-01  4.17351146E+03  6.27457911E+02  1.42902093E+02
  4.02343293E+01  1.28202129E+01  4.39043701E+00  1.16263619E+01  2.71627981E+00
  7.72218397E-01  2.12031498E-01  8.00000000E-01  1.87311370E+01  2.82539436E+00
  6.40121692E-01  1.61277759E-01  1.87311370E+01  2.82539436E+00  6.40121692E-01
  1.61277759E-01  1.87311370E+01  2.82539436E+00  6.40121692E-01  1.61277759E-01
Contraction coefficients                   R   N=          45
  1.83107443E-03  1.39501722E-02  6.84450781E-02  2.32714336E-01  4.70192898E-01
  3.58520853E-01 -1.10777550E-01 -1.48026263E-01  1.13076702E+00  1.00000000E+00
  1.00000000E+00  1.83473713E-03  1.40373228E-02  6.88426223E-02  2.32184443E-01
  4.67941348E-01  3.62311985E-01 -1.19332420E-01 -1.60854152E-01  1.14345644E+00
  1.00000000E+00  1.00000000E+00  1.83477216E-03  1.39946270E-02  6.85865518E-02
  2.32240873E-01  4.69069948E-01  3.60455199E-01 -1.14961182E-01 -1.69117479E-01
  1.14585195E+00  1.00000000E+00  1.00000000E+00  3.34946043E-02  2.34726953E-01
  8.13757326E-01  1.00000000E+00  3.34946043E-02  2.34726953E-01  8.13757326E-01
  1.00000000E+00  3.34946043E-02  2.34726953E-01  8.13757326E-01  1.00000000E+00
P(S=P) Contraction coefficients            R   N=          45
  0.00000000E+00  0.00000000E+00  0.00000000E+00  0.00000000E+00  0.00000000E+00
  0.00000000E+00  7.08742682E-02  3.39752839E-01  7.27158577E-01  1.00000000E+00
  0.00000000E+00  0.00000000E+00  0.00000000E+00  0.00000000E+00  0.00000000E+00
  0.00000000E+00  0.00000000E+00  6.89990666E-02  3.16423961E-01  7.44308291E-01
  1.00000000E+00  0.00000000E+00  0.00000000E+00  0.00000000E+00  0.00000000E+00
  0.00000000E+00  0.00000000E+00  0.00000000E+00  6.75797439E-02  3.23907296E-01
  7.40895140E-01  1.00000000E+00  0.00000000E+00  0.00000000E+00  0.00000000E+00
  0.00000000E+00  0.00000000E+00  0.00000000E+00  0.00000000E+00  0.00000000E+00
  0.00000000E+00  0.00000000E+00  0.00000000E+00  0.00000000E+00  0.00000000E+00
Coordinates of each shell                  R   N=          54
  7.82157646E+00 -2.96687003E+00 -4.26700161E+00  7.82157646E+00 -2.96687003E+00
 -4.26700161E+00  7.82157646E+00 -2.96687003E+00 -4.26700161E+00  7.82157646E+00
 -2.96687003E+00 -4.26700161E+00  6.67073325E+00 -4.03267557E+00 -2.59270425E+00
  6.67073325E+00 -4.03267557E+00 -2.59270425E+00  6.67073325E+00 -4.03267557E+00
 -2.59270425E+00  6.67073325E+00 -4.03267557E+00 -2.59270425E+00  4.24243517E+00
 -4.60148313E+00 -2.77600769E+00  4.24243517E+00 -4.60148313E+00 -2.77600769E+00
  4.24243517E+00 -4.60148313E+00 -2.77600769E+00  4.24243517E+00 -4.60148313E+00
 -2.77600769E+00  7.65948897E+00 -4.53209451E+00 -9.01120669E-01  7.65948897E+00
 -4.53209451E+00 -9.01120669E-01  3.38883191E+00 -5.55869325E+00 -1.38814057E+00
  3.38883191E+00 -5.55869325E+00 -1.38814057E+00  3.26106499E+00 -4.07409948E+00
 -4.30239030E+00  3.26106499E+00 -4.07409948E+00 -4.30239030E+00
Constraint Structure                       R   N=          18
  7.82157646E+00 -2.96687003E+00 -4.26700161E+00  6.67073325E+00 -4.03267557E+00
 -2.59270425E+00  4.24243517E+00 -4.60148313E+00 -2.77600769E+00  7.65948897E+00
 -4.53209451E+00 -9.01120669E-01  3.38883191E+00 -5.55869325E+00 -1.38814057E+00
  3.26106499E+00 -4.07409948E+00 -4.30239030E+00
Num ILSW                                   I              100
ILSW                                       I   N=         100
           0           1           0           0           2           0
           0           0           0           0         402          -1
           0           0           0           0           0           0
           0           0           1           0           0           0
           1           1           0           0           0           0
           0           0      100000           0          -1           0
           0           0           0           0           0           0
           0           0           0           1           0           0
           0           0           1           0           0           0
           0           0           4          41           0           0
           0           0           5           0           0           0
           0           0           0           0           0           0
           0           0           0           0           0           0
           0           0           0           0           0           0
           0           0           0           0           0           0
           0           0           0           0           0           0
           0           0           0           0
Num RLSW                                   I               41
RLSW                                       R   N=          41
  8.00000000E-01  7.20000000E-01  1.00000000E+00  8.10000000E-01  2.00000000E-01
  0.00000000E+00  0.00000000E+00  1.00000000E+00  0.00000000E+00  0.00000000E+00
  0.00000000E+00  0.00000000E+00  1.00000000E+00  0.00000000E+00  0.00000000E+00
  0.00000000E+00  0.00000000E+00  1.00000000E+00  0.00000000E+00  0.00000000E+00
  0.00000000E+00  0.00000000E+00  1.00000000E+00  0.00000000E+00  0.00000000E+00
  0.00000000E+00  0.00000000E+00  1.00000000E+00  0.00000000E+00  0.00000000E+00
  0.00000000E+00  0.00000000E+00  1.00000000E+00  0.00000000E+00  0.00000000E+00
  0.00000000E+00  0.00000000E+00  0.00000000E+00  1.00000000E+00  1.00000000E+00
  0.00000000E+00
MxBond                                     I                3
NBond                                      I   N=           6
           1           3           3           1           1           1
IBond                                      I   N=          18
           2           0           0           1           3           4
           2           5           6           2           0           0
           3           0           0           3           0           0
RBond                                      R   N=          18
  2.00000000E+00  0.00000000E+00  0.00000000E+00  2.00000000E+00  1.41000000E+00
  1.00000000E+00  1.41000000E+00  1.00000000E+00  1.00000000E+00  1.00000000E+00
  0.00000000E+00  0.00000000E+00  1.00000000E+00  0.00000000E+00  0.00000000E+00
  1.00000000E+00  0.00000000E+00  0.00000000E+00
Virial Ratio                               R      2.007779466656897E+00
SCF Energy                                 R     -1.698844882996284E+02
Total Energy                               R     -1.698844882996284E+02
RMS Density                                R      5.166443707639699E-09
External E-field                           R   N=          35
  0.00000000E+00  0.00000000E+00  0.00000000E+00  0.00000000E+00  0.00000000E+00
  0.00000000E+00  0.00000000E+00  0.00000000E+00  0.00000000E+00  0.00000000E+00
  0.00000000E+00  0.00000000E+00  0.00000000E+00  0.00000000E+00  0.00000000E+00
  0.00000000E+00  0.00000000E+00  0.00000000E+00  0.00000000E+00  0.00000000E+00
  0.00000000E+00  0.00000000E+00  0.00000000E+00  0.00000000E+00  0.00000000E+00
  0.00000000E+00  0.00000000E+00  0.00000000E+00  0.00000000E+00  0.00000000E+00
  0.00000000E+00  0.00000000E+00  0.00000000E+00  0.00000000E+00  0.00000000E+00
IOpCl                                      I                0
IROHF                                      I                0
Alpha Orbital Energies                     R   N=          51
 -1.91044829E+01 -1.43642695E+01 -1.02784924E+01 -1.03165335E+00 -9.16495960E-01
 -6.32627895E-01 -5.65925954E-01 -4.93014290E-01 -4.05247595E-01 -3.99961647E-01
 -2.69238069E-01 -2.46185813E-01  3.69116766E-02  7.54124038E-02  1.10564524E-01
  1.74040783E-01  2.72521340E-01  3.60924076E-01  5.33702226E-01  5.51335931E-01
  6.53754617E-01  6.78188657E-01  7.03717751E-01  7.10373513E-01  8.59722817E-01
  8.76342021E-01  8.80820596E-01  8.92886863E-01  1.01083243E+00  1.07832071E+00
  1.22444244E+00  1.31693190E+00  1.38597733E+00  1.46370339E+00  1.47400109E+00
  1.69152760E+00  1.80351030E+00  1.85996678E+00  1.89545363E+00  2.05039552E+00
  2.13932040E+00  2.31110372E+00  2.33244980E+00  2.49095406E+00  2.64059485E+00
  2.69029175E+00  2.92445365E+00  3.04075138E+00  3.74248393E+00  3.86340546E+00
  4.17310478E+00
Alpha MO coefficients                      R   N=        2601
  9.92770107E-01  2.58171233E-02 -6.38074277E-04 -5.59406491E-04  8.70743587E-04
  1.33237822E-02 -8.07502316E-04 -6.79647228E-04  1.02396717E-03 -7.91446742E-03
 -7.95008184E-03 -7.78616105E-03  1.51017310E-04 -2.29708201E-04 -2.07811401E-04
  2.41485940E-05  5.57138918E-04 -7.51061095E-05 -2.29381787E-05  6.50693788E-06
 -3.06213631E-03 -9.04986645E-04 -1.30156481E-03  2.33057050E-03 -2.21785988E-04
 -1.83412365E-04 -4.74071200E-04 -2.36047491E-04  3.64984306E-04  3.50277668E-04
 -1.40993151E-05 -1.45148459E-05  3.59535383E-05 -2.50220321E-05  7.49222880E-05
  4.38572023E-04 -5.41807811E-05  2.97338508E-04 -6.51550734E-04 -4.42819725E-05
 -5.84719143E-05 -4.55403782E-05 -6.50645371E-05  1.22544144E-04  4.08591821E-05
 -1.73976122E-05 -5.43762748E-04  1.51538337E-04 -7.69026394E-05 -1.32456209E-04
 -2.78826777E-04 -3.65111824E-07  9.91638081E-06  2.70587275E-05  1.16662240E-05
 -1.08421478E-05  3.28572698E-05  4.28837735E-05  1.25919713E-05  3.77716872E-06
 -7.17774952E-05 -1.42218946E-05  4.31036294E-06 -3.51003519E-05  2.98146333E-05
  3.63046312E-06  5.94870572E-05  2.81653464E-04 -3.28351581E-04 -6.50401828E-05
 -5.10796492E-05 -7.95184075E-04  2.89931005E-04  7.75230232E-05 -4.15581957E-06
  8.16197889E-05  8.52529482E-06  3.23905029E-05  2.18957658E-05  8.84602464E-06
 -1.55476814E-05  9.92560100E-01  3.49729868E-02 -6.64270596E-05 -3.65820463E-05
  3.76827003E-05  4.83182377E-03  7.95486297E-05  3.51895512E-05 -2.48217445E-05
 -8.50412017E-03 -8.51443852E-03 -8.47033741E-03  2.91324212E-06  1.08733845E-05
 -3.29301232E-05 -9.45945624E-06  5.01820949E-05  3.06849878E-04 -5.76569110E-04
  3.06133894E-04 -6.14073733E-04 -1.64663645E-04  3.10057327E-04 -3.34896163E-05
 -1.48654612E-05  1.36930902E-05 -2.28881602E-03  1.03596882E-03  7.77552523E-04
 -1.11270939E-03  4.96965430E-05  1.85338532E-04  1.49043591E-05 -1.39665621E-04
  1.47084362E-04  1.81005272E-04  9.92706339E-01  4.86292156E-02 -3.39311084E-04
  1.13577370E-04 -4.43199627E-04 -6.58567296E-03  2.21582787E-05  1.12146415E-03
 -2.45400503E-03 -8.95947423E-03 -9.75240986E-03 -9.23973967E-03  4.28497653E-04
 -2.08357867E-04 -4.77423605E-04 -2.11965719E-04 -6.45756764E-05 -3.94020056E-04
 -6.23112538E-05 -9.19063639E-05  6.63313207E-04 -2.74958243E-04 -4.62425924E-04
  8.05587879E-04 -6.37092639E-04 -4.40543020E-05 -8.85318539E-05 -1.60209563E-04
 -7.67459534E-05  3.23373800E-05 -3.39245458E-04  2.90505107E-03 -1.30929788E-04
 -6.90824488E-05  1.73807218E-04  3.11451201E-04 -1.71091290E-01  3.69970167E-01
 -8.16200870E-02 -7.00562276E-02  1.06822667E-01  3.43685668E-01 -3.31129249E-02
 -2.39761978E-02  3.38170178E-02 -2.88624190E-03 -2.88035428E-03  9.90780108E-04
  5.33019448E-03 -9.42566086E-03 -6.48967987E-03 -1.34850849E-01  2.64839992E-01
  3.22871857E-02  6.35904640E-02 -1.21082081E-01  7.25848043E-02  1.04367244E-02
 -1.12325908E-02  3.09876876E-02 -4.06314177E-03 -1.36280601E-02  8.76256130E-04
  1.13633087E-02 -1.25618019E-02 -1.56468935E-02 -7.65952583E-02  1.57803975E-01
  5.01450878E-02  1.67812778E-02 -7.06653163E-03  1.51518356E-01  2.17940591E-02
  1.05876503E-02 -1.01122951E-02  8.42526720E-03 -4.29400067E-03  2.56883174E-04
  4.76249106E-03  2.86784012E-04 -4.67327422E-03  3.74362774E-02 -1.68557731E-02
  3.39869347E-02 -6.93066172E-04  3.77985142E-02 -7.43338390E-04  9.82303580E-02
 -2.19369133E-01  1.85837544E-02  2.91949810E-02 -5.36763377E-02 -1.89916579E-01
 -1.82812473E-03  4.66334980E-03 -1.12319741E-02  2.96526802E-03  4.33161730E-04
 -1.75194701E-03  7.46118616E-05  1.14994923E-03  1.78876980E-03 -2.49494370E-02
  5.09843793E-02 -1.93185246E-01 -8.74689361E-02  7.85688514E-02  4.20366367E-03
 -1.77423086E-03 -6.79751285E-03  1.37020153E-02  1.87538784E-02 -5.32684461E-03
 -1.29009111E-02  8.46794925E-04  1.23785436E-02  8.95162983E-03 -1.84401509E-01
  3.85899503E-01  1.90262411E-02 -2.85629365E-03  1.68840027E-02  3.86845810E-01
 -8.73852745E-04 -3.59386467E-03  7.23495973E-03  2.21184310E-03 -9.69261133E-03
  6.78773543E-03  3.74529294E-03  4.33500644E-03 -1.28459231E-02  1.18423988E-02
 -3.73787218E-04  1.19717162E-01  3.56930074E-03  1.08571131E-01  8.61616007E-04
  6.03558932E-02 -1.39870264E-01 -4.58120654E-03 -2.27369746E-02  4.62722900E-02
 -1.43652519E-01 -1.14794669E-02 -1.84199999E-02  3.33608211E-02 -7.79107591E-04
  8.90632466E-04  5.79987037E-03  1.83340553E-03 -3.45743754E-03 -4.73315218E-03
 -1.31367238E-01  2.82313016E-01 -7.37738210E-02 -1.00538959E-01  1.75619211E-01
  1.94803479E-01 -9.41176403E-03 -3.61828893E-02  7.32854161E-02 -1.55137614E-03
 -1.24479203E-02 -5.83394630E-03 -8.64085341E-04  9.95118463E-03 -9.42856835E-04
  4.46001523E-02 -9.79229396E-02  3.19927169E-01  1.65787395E-02  1.41372200E-01
 -1.34671511E-01  1.44434534E-01  9.89376864E-03  5.85623759E-02  7.64648561E-03
 -3.07917848E-04 -1.16823174E-02  1.29501394E-03  4.73384823E-04  9.32512298E-03
  1.63440281E-01  5.85615704E-02 -6.72803069E-02 -2.25517654E-02 -1.77499926E-01
 -6.07132504E-02 -3.21940743E-02  6.90067067E-02  1.09025534E-01  1.45550746E-02
  2.61698000E-02  1.12492191E-01  5.30187020E-02  5.60315497E-03  1.59369759E-02
 -9.49083410E-03 -1.36708739E-03  1.80218856E-03 -4.83159210E-03  4.85532538E-03
 -2.90550673E-05  2.14075646E-02 -5.42658554E-02  2.05047619E-01 -1.80293848E-02
  1.46354114E-01 -1.49776204E-02  2.86049036E-02 -9.76031118E-03  3.36607126E-02
 -4.24467476E-03  6.75772057E-03  7.63615440E-03  4.57875296E-03 -1.35688804E-02
 -5.73787787E-03 -2.80502941E-03  5.27381615E-03 -2.19645558E-01 -2.29414189E-01
  3.26074961E-01  3.60461378E-03 -9.93527390E-02 -1.11991561E-01  1.63273829E-01
 -3.06179272E-03  3.32089588E-03  6.55941580E-03  4.51416406E-03 -9.97363833E-03
 -7.17521502E-03  8.31842300E-02  5.94168648E-02  2.55936002E-01  1.21590345E-01
 -1.09205377E-01 -4.11188197E-02  5.18928704E-02 -1.09377226E-01  5.48437454E-02
 -5.75244289E-02  1.73243872E-01 -2.02778054E-01  3.56872451E-02 -2.49965346E-02
  8.36363945E-02 -4.80689381E-03  4.06396885E-03  1.83067622E-02 -2.54383173E-03
  5.34964242E-04 -8.11132886E-03 -4.85345261E-02  1.04351516E-01  2.99767597E-01
  1.43478453E-02  1.70923591E-01  1.49464477E-01  6.09134308E-02 -6.73108481E-03
  5.99432800E-02 -7.94400923E-03 -3.25420835E-03  1.06829998E-02 -1.06671788E-02
  1.72465898E-02 -1.99036018E-03  1.18821086E-02 -2.62682032E-02 -2.35954039E-01
  7.46675318E-02 -2.46118846E-01 -4.66283772E-02 -1.29624598E-01  3.79297765E-02
 -1.27653420E-01  2.92406596E-03 -9.20436132E-04  7.35102941E-03 -6.75492677E-03
  1.55644506E-02  2.68668216E-04  2.08985490E-01  1.40221498E-01 -8.07626475E-02
 -4.48205635E-02  1.98566195E-01  1.05365347E-01 -3.34341918E-02  6.69828541E-02
  3.60786639E-02  3.54450370E-01 -6.82919439E-03  1.49254546E-01  1.69039158E-02
  2.02328283E-01  4.40149327E-03 -6.04334319E-04 -1.95561004E-02  4.53244070E-03
 -1.28989071E-02 -2.54324953E-03  1.48482638E-02  1.56471677E-02 -4.20985041E-02
 -1.26933810E-01  2.48285761E-01  2.45389042E-01 -2.25409885E-02 -5.05392520E-02
  1.47188000E-01  8.46899708E-02  7.33481105E-03  6.51434217E-03 -6.31788481E-03
 -7.52120697E-03  3.88242798E-03 -7.39137986E-03 -2.42058123E-03  6.37663293E-03
 -5.09429552E-02  2.93055607E-01  1.14305223E-01  2.36087539E-03 -3.72455519E-02
  1.92392928E-01  8.97946837E-02 -5.18246419E-03  3.08252715E-03  1.22410564E-03
  6.48826292E-03  8.48912801E-03  2.76107231E-03  3.32692316E-02  4.28081800E-02
 -2.91209150E-02 -2.38471909E-02  1.73528073E-02  2.07819720E-02  7.81007539E-02
 -1.55163459E-01 -3.01747732E-01 -1.02328719E-01  3.62757516E-01 -3.54003145E-01
 -1.66405327E-01 -4.82267604E-02  1.93611570E-01  1.62877693E-02  1.54841508E-03
  1.99615537E-02  7.61818292E-03 -1.92351136E-02 -7.45192241E-03 -3.51677906E-02
  9.64220645E-02  6.18407997E-02  2.73027647E-01 -2.15180850E-01  4.49089213E-02
 -2.68828907E-03  8.75314071E-02 -1.39518646E-02 -1.04479665E-02 -1.05004252E-04
 -7.96464553E-03  2.04614659E-03 -1.31366935E-02 -7.41044143E-03  5.41769581E-03
 -1.43083219E-02 -7.65223330E-02  4.24227961E-02  1.46287445E-01 -6.14094105E-03
 -4.64421686E-02  4.67171451E-02  6.82966936E-02 -2.05571765E-04  3.77294214E-03
 -1.62332966E-03  1.04985965E-02 -1.11772586E-02 -2.21094673E-03 -9.92147011E-02
 -1.18374109E-01  8.79349600E-02  7.21350979E-02 -6.29179966E-02 -6.51120679E-02
 -2.09319570E-04  1.03252165E-03  1.06703294E-01 -3.89889354E-01 -1.63107168E-01
  5.44712817E-04  7.64913960E-02 -2.77208054E-01 -1.15959746E-01 -4.39606249E-03
  1.57091778E-02 -1.08855187E-02  6.75416932E-03  7.80636058E-03 -1.06662767E-02
  2.87322650E-04 -1.74826908E-05  1.54930679E-02 -6.01855226E-02 -3.38310271E-02
 -3.10800635E-03  1.75035320E-02 -6.67805358E-02 -2.99796885E-02  1.45372490E-02
 -2.59182226E-02  1.10676390E-02 -2.50772995E-02 -1.96681334E-02  8.43840806E-03
 -9.51608406E-04  1.59483520E-03 -1.07895291E-01  4.05283540E-01  2.10553711E-01
  7.99098704E-03 -9.63787248E-02  3.55740322E-01  1.83065774E-01  6.25857035E-04
 -3.01927126E-03  1.68826527E-03 -1.43937625E-03 -1.65958234E-03  1.63165333E-03
 -8.21050930E-03 -1.07908040E-02 -9.12010510E-04 -2.48094940E-03 -7.38404732E-04
 -4.44103576E-03 -1.31898658E-03  1.36370579E-02  4.93264754E-01 -1.79534388E-02
  3.53585562E-01 -3.41688074E-02  3.48689794E-01 -8.09544584E-03  2.39857860E-01
 -1.44041005E-02  4.06230817E-03  1.93689178E-02 -8.20279001E-03  5.54773732E-03
 -6.32468899E-03  1.00064017E-02 -8.34887309E-03 -3.76880804E-02  1.71915565E-02
 -5.91841412E-02 -1.01130621E-01  1.72116080E-01  3.63738814E-02  2.42229788E-02
  3.62027269E-02 -1.10133954E-03 -3.77781821E-02  2.01419311E-02 -1.76126154E-02
  1.44660690E-02 -4.18070709E-02  8.12363310E-02  1.46801589E-01  3.37460238E-02
 -1.14222311E-02  3.79880029E-01  1.37072835E-01  2.37102520E-02  7.23177073E-03
 -6.07355607E-03 -5.23759255E-03 -8.51462860E-03 -8.26732692E-04  5.23857623E-04
  2.10129688E-03 -1.50346233E-01 -2.59065144E-01 -4.65670898E-02 -9.32759155E-02
 -1.70329734E-02 -8.87005473E-02  8.54979022E-04 -1.12542619E-03  9.50785176E-02
 -3.39369675E-01 -1.57403280E-01 -1.20148795E-02  1.10026566E-01 -3.88835274E-01
 -1.81465444E-01 -1.64122201E-04 -1.51612792E-03  2.58767649E-03  1.54462030E-03
 -1.39162090E-05  2.65038507E-03  7.72151836E-04 -1.24273833E-03 -1.26151329E-01
  4.73044887E-01  2.09917938E-01 -5.75150894E-03 -1.51036795E-01  5.81871735E-01
  2.47208078E-01  4.93131650E-05 -1.86770284E-02  1.92232632E-02  3.54228857E-03
 -4.48237950E-03  1.99750506E-02 -2.04543844E-03  2.75681926E-03  6.07567647E-02
 -2.27906551E-01 -1.25312378E-01  2.90193702E-02  8.39826109E-02 -3.27695687E-01
 -1.87588556E-01 -1.36704734E-02  8.19597571E-03  3.52047058E-03  2.68326885E-02
  1.00597287E-02  7.44930482E-03  4.71028422E-03  2.33079672E-02  6.86641056E-03
  1.67283560E-02 -1.00751681E-02 -5.33105068E-02 -4.98503559E-03  2.89401637E-02
 -1.01230723E-01  6.13047714E-03 -5.86042615E-02 -3.19517138E-02 -1.00522866E-01
  7.03892391E-03 -6.31309778E-02  4.74897827E-03  5.41004630E-03  4.57230369E-03
  1.81767692E-03 -3.31621499E-03 -8.23612374E-04  2.89347025E-03  2.06768252E-03
  9.71383725E-02 -5.08453537E-03  5.37820407E-02  9.81255254E-02  1.21200808E-01
  1.17047521E-02  3.70947271E-02  4.60500644E-03 -1.11958514E-03  2.28790340E-03
  7.51322316E-04  3.28156361E-03 -8.70405180E-04 -1.17496655E-01  1.87492977E-01
 -2.09067954E-01 -7.88253904E-02  4.80796869E-02  1.63205252E+00 -4.52580279E-01
 -1.73862250E-01  1.00856654E-01 -2.13713476E-02 -2.80575932E-02 -2.49040081E-02
  8.44966934E-04  2.24964294E-03 -1.71569598E-03  4.43074536E-02 -1.16907861E-01
 -9.92104631E-02 -1.38915655E+00 -8.91728633E-02 -9.45898450E-01 -4.38898764E-03
  8.37129233E-03 -3.69994905E-02 -2.45817625E-02  1.68213210E-03  4.52558847E-02
 -7.82079573E-02 -2.13436612E-02 -3.97002802E-02 -4.86720860E-03  4.38988517E-04
 -4.18515927E-04 -1.89817542E-03  9.18393445E-05  1.02045139E-03 -5.67270378E-02
  9.34886245E-02  4.65793702E-02 -6.08950501E-02  2.02657786E-01  9.06188841E-01
  9.05273462E-02 -1.26584587E-01  4.14083800E-01 -1.02830774E-02  1.37912426E-03
 -4.14156444E-04  8.13880524E-03 -2.11667078E-02 -5.76190462E-03  3.48483994E-02
 -6.28664544E-02  4.18233802E-03 -1.51258228E-01  2.71002640E-01 -4.59152102E-01
 -2.80654482E-02 -3.66026378E-01  6.40654548E-01  9.68704583E-03  2.97948261E-03
  5.45398329E-03 -6.32888572E-03  1.74150464E-02  5.42446494E-03 -7.43867897E-02
 -1.14635550E+00 -6.27435223E-02 -8.83739705E-01  1.03918533E-01  1.30933563E+00
 -1.01726275E-02  3.45718290E-02 -1.37496732E-02 -5.75523294E-02  1.10745144E-01
  1.07103071E-02  5.54868391E-02 -6.55802263E-02  1.64682248E-01  3.88763476E-03
 -2.38290099E-03  2.44340300E-03  2.85811242E-04  4.41838597E-03 -1.90684475E-03
  1.01675250E-01 -1.64206720E-01 -8.89438166E-02  7.66029786E-02 -2.18281611E-01
 -1.76561713E+00 -2.29451709E-01  3.13564651E-01 -7.93712299E-01  1.22792318E-02
 -1.51489090E-04  1.86242474E-03  1.15239689E-02 -1.20697900E-02 -6.57972491E-03
 -2.38576494E-02  4.77207299E-02  1.07521803E-01 -9.09105616E-02  2.26919139E-01
  3.01171235E-01  3.44190902E-01 -3.13190417E-01  7.97110379E-01 -1.33242306E-02
 -1.85736804E-03  6.73384726E-03 -3.58103754E-05 -5.33213351E-03 -7.64503770E-03
  3.41506860E-02  1.87657928E+00 -3.35368022E-02 -9.25510706E-01  4.21908601E-02
  9.86382101E-01 -1.18436800E-01  8.01533327E-02 -5.72799034E-02 -8.18805395E-02
  1.43834733E-01  2.41984354E+00 -4.44307549E-01 -4.53051500E-01  7.34015478E-01
 -6.16398053E-02 -6.40738338E-02 -3.93563322E-02  2.07153201E-02 -3.30574945E-02
 -2.98413392E-02  4.15812531E-02  1.41458576E-02 -7.77697975E-02 -6.41699666E-02
  1.13571835E-01 -1.54019793E+00 -1.25810596E+00 -1.09305922E+00  1.67474781E+00
 -1.58106549E-02 -7.15152250E-03  3.50014625E-03  4.94413265E-03 -1.11728101E-02
 -1.10499416E-02  6.40381879E-04  3.54267727E-02 -1.60679907E-02  2.09314074E-02
 -6.94817485E-02 -4.00417447E-01 -1.46155978E-01  2.06115433E-01 -5.39564692E-01
  1.33809904E-02 -5.93190812E-03  2.18424532E-02 -1.37603121E-02  3.93966774E-02
 -2.61832373E-03  2.22815832E-02 -2.34342869E-01 -1.01976144E-01  1.88919199E-01
  1.23076402E-01 -3.65834017E-01  2.60334211E-02 -2.56615332E-02  1.73473890E-01
  2.58412883E-02  5.00010509E-02 -4.58316900E-01  5.89260806E-01  1.25116330E-01
  7.07865917E-02  1.68671651E-03  2.55420415E-02  8.20201220E-04 -7.49973403E-03
 -4.18860870E-03  1.57143167E-02 -8.46590294E-02 -8.32037533E-03 -3.99143353E-01
 -1.43126910E-02 -2.15687743E-01  2.73464290E+00 -2.25256805E+00 -2.01001875E-01
 -8.80692923E-01 -3.35570619E-02  2.43897678E-02 -1.52944388E-03 -9.21146363E-03
 -2.29462669E-02  1.14348159E-02  8.56072237E-02 -1.27782733E-01 -3.13678600E-01
 -7.92653827E-02 -1.98039362E-02 -2.13554298E+00 -1.93008801E+00 -5.85621745E-01
  1.35924034E-01  3.54422466E-02  2.34270812E-02 -1.94009308E-02  3.75663063E-03
 -8.52764609E-03  2.98275957E-02 -1.31979953E-01  8.85717017E-01 -1.10963344E-01
 -6.89277423E-01 -8.84828563E-02 -3.36646555E-01 -1.42075286E-04  4.40763757E-04
  1.88175713E-02 -6.48474790E-02 -3.05805134E-02  4.19225517E-03  3.57439698E-02
 -1.32333275E-01 -5.67429545E-02 -1.47044136E-02  4.48756832E-02 -2.95814350E-02
  2.34588987E-02  2.39317165E-02 -2.82654619E-02  1.96778073E-04 -3.99274317E-03
  2.43074613E-01 -8.54400840E-01 -3.84476539E-01 -2.63877660E-03 -3.09036738E-01
  1.08644451E+00  4.87696696E-01 -1.17951715E-02 -4.48493145E-03  1.58037482E-02
  2.63926008E-02  8.55583146E-03  1.99362526E-02 -5.92746762E-04  1.23734838E-04
  5.89065391E-02 -2.05100164E-01 -1.13789179E-01 -4.23428067E-03  1.01654650E-02
 -1.63313520E-02  2.52821147E-03  1.81459903E-02 -2.11500306E-02  1.38022844E-03
 -4.14564280E-02 -2.23889549E-02 -5.08501460E-03  2.88877788E-03 -5.98235298E-04
  4.55585937E-03  8.53526752E-03 -3.33580548E-03 -6.51774613E-03 -1.91807036E-02
  1.11091288E-01 -7.52006172E-02  1.38375637E-03 -4.89837860E-02  1.37297543E-01
 -2.71477738E-01 -1.00209045E-01  5.58170562E-02  5.60128267E-02  9.27796302E-03
 -1.06235974E-02  2.11354831E-02 -1.13907693E-02  4.96592213E-03  9.95235515E-03
  7.14401757E-01 -7.67987447E-01 -1.73782922E-01 -1.01158399E-01 -1.12141054E+00
  1.25298505E+00  1.14094578E-01  5.27196647E-01  4.30724066E-02  1.51102602E-02
  6.06469927E-02  2.81258914E-03  2.00006952E-02 -2.32270922E-02  3.09454368E-02
  1.69957017E-02  1.48520979E-01  1.51539377E-02  5.07991787E-02  6.17431882E-01
 -3.29449740E-01  4.42965919E-03 -2.00481727E-01  1.66239752E-01 -4.12578830E-02
 -4.47288973E-02  6.31857489E-02  1.18684030E-02 -2.95803624E-03  1.68817686E-01
 -3.65575050E-01  3.18704825E-02  9.09174189E-02 -1.64811792E-02  1.34524802E-02
  3.07211060E-03  2.04922785E-02 -3.66570839E-01 -9.47769414E-02 -1.40445189E-02
 -5.28395834E-01  5.20210854E-02  1.01430230E-01 -2.00259189E-01 -2.46899717E-02