Title Card Required                                                     
SP        RB3LYP                                                      6-31G(d)            
Number of atoms                            I               10
Info1-9                                    I   N=           9
          20          19           0           0           0         110
           1          18        -502
Charge                                     I                0
Multiplicity                               I                1
Number of electrons                        I               26
Number of alpha electrons                  I               13
Number of beta electrons                   I               13
Number of basis functions                  I               59
Number of independent functions            I               59
Number of point charges in /Mol/           I                0
Number of translation vectors              I                0
Atomic numbers                             I   N=          10
           7           6           6           1           1           1
           1           1           1           1
Nuclear charges                            R   N=          10
  7.00000000E+00  6.00000000E+00  6.00000000E+00  1.00000000E+00  1.00000000E+00
  1.00000000E+00  1.00000000E+00  1.00000000E+00  1.00000000E+00  1.00000000E+00
Current cartesian coordinates              R   N=          30
 -2.26389191E+00  1.57792132E+00  0.00000000E+00  0.00000000E+00  0.00000000E+00
  0.00000000E+00  2.36593712E+00  1.64784119E+00  0.00000000E+00 -1.76276787E+00
  3.39851069E+00 -7.34432613E-02 -3.25323962E+00  1.26008537E+00  1.57836507E+00
 -1.73344578E-04 -1.01100346E+00  1.75110939E+00 -1.73344578E-04 -1.01100346E+00
 -1.75110939E+00  1.82947633E+00  3.59738524E+00  0.00000000E+00  3.46378126E+00
  1.25088322E+00  1.65096177E+00  3.46378126E+00  1.25088322E+00 -1.65096177E+00
Force Field                                I                0
Int Atom Types                             I   N=          10
           0           0           0           0           0           0
           0           0           0           0
MM charges                                 R   N=          10
  0.00000000E+00  0.00000000E+00  0.00000000E+00  0.00000000E+00  0.00000000E+00
  0.00000000E+00  0.00000000E+00  0.00000000E+00  0.00000000E+00  0.00000000E+00
Integer atomic weights                     I   N=          10
          14          12          12           1           1           1
           1           1           1           1
Real atomic weights                        R   N=          10
  1.40030740E+01  1.20000000E+01  1.20000000E+01  1.00782504E+00  1.00782504E+00
  1.00782504E+00  1.00782504E+00  1.00782504E+00  1.00782504E+00  1.00782504E+00
Atom fragment info                         I   N=          10
           0           0           0           0           0           0
           0           0           0           0
Atom residue num                           I   N=          10
           0           0           0           0           0           0
           0           0           0           0
Nuclear spins                              I   N=          10
           2           0           0           1           1           1
           1           1           1           1
Nuclear ZEff                               R   N=          10
 -4.55000000E+00 -3.60000000E+00 -3.60000000E+00 -1.00000000E+00 -1.00000000E+00
 -1.00000000E+00 -1.00000000E+00 -1.00000000E+00 -1.00000000E+00 -1.00000000E+00
Nuclear ZNuc                               R   N=          10
  7.00000000E+00  6.00000000E+00  6.00000000E+00  1.00000000E+00  1.00000000E+00
  1.00000000E+00  1.00000000E+00  1.00000000E+00  1.00000000E+00  1.00000000E+00
Nuclear QMom                               R   N=          10
  2.04400000E+00  0.00000000E+00  0.00000000E+00  0.00000000E+00  0.00000000E+00
  0.00000000E+00  0.00000000E+00  0.00000000E+00  0.00000000E+00  0.00000000E+00
Nuclear GFac                               R   N=          10
  4.03761000E-01  0.00000000E+00  0.00000000E+00  2.79284600E+00  2.79284600E+00
  2.79284600E+00  2.79284600E+00  2.79284600E+00  2.79284600E+00  2.79284600E+00
MicOpt                                     I   N=          10
          -1          -1          -1          -1          -1          -1
          -1          -1          -1          -1
Number of contracted shells                I               26
Number of primitive shells                 I               61
Pure/Cartesian d shells                    I                1
Pure/Cartesian f shells                    I                0
Highest angular momentum                   I                2
Largest degree of contraction              I                6
Shell types                                I   N=          26
           0          -1          -1           2           0          -1
          -1           2           0          -1          -1           2
           0           0           0           0           0           0
           0           0           0           0           0           0
           0           0
Number of primitives per shell             I   N=          26
           6           3           1           1           6           3
           1           1           6           3           1           1
           3           1           3           1           3           1
           3           1           3           1           3           1
           3           1
Shell to atom map                          I   N=          26
           1           1           1           1           2           2
           2           2           3           3           3           3
           4           4           5           5           6           6
           7           7           8           8           9           9
          10          10
Primitive exponents                        R   N=          61
  4.17351146E+03  6.27457911E+02  1.42902093E+02  4.02343293E+01  1.28202129E+01
  4.39043701E+00  1.16263619E+01  2.71627981E+00  7.72218397E-01  2.12031498E-01
  8.00000000E-01  3.04752488E+03  4.57369518E+02  1.03948685E+02  2.92101553E+01
  9.28666296E+00  3.16392696E+00  7.86827235E+00  1.88128854E+00  5.44249258E-01
  1.68714478E-01  8.00000000E-01  3.04752488E+03  4.57369518E+02  1.03948685E+02
  2.92101553E+01  9.28666296E+00  3.16392696E+00  7.86827235E+00  1.88128854E+00
  5.44249258E-01  1.68714478E-01  8.00000000E-01  1.87311370E+01  2.82539436E+00
  6.40121692E-01  1.61277759E-01  1.87311370E+01  2.82539436E+00  6.40121692E-01
  1.61277759E-01  1.87311370E+01  2.82539436E+00  6.40121692E-01  1.61277759E-01
  1.87311370E+01  2.82539436E+00  6.40121692E-01  1.61277759E-01  1.87311370E+01
  2.82539436E+00  6.40121692E-01  1.61277759E-01  1.87311370E+01  2.82539436E+00
  6.40121692E-01  1.61277759E-01  1.87311370E+01  2.82539436E+00  6.40121692E-01
  1.61277759E-01
Contraction coefficients                   R   N=          61
  1.83477216E-03  1.39946270E-02  6.85865518E-02  2.32240873E-01  4.69069948E-01
  3.60455199E-01 -1.14961182E-01 -1.69117479E-01  1.14585195E+00  1.00000000E+00
  1.00000000E+00  1.83473713E-03  1.40373228E-02  6.88426223E-02  2.32184443E-01
  4.67941348E-01  3.62311985E-01 -1.19332420E-01 -1.60854152E-01  1.14345644E+00
  1.00000000E+00  1.00000000E+00  1.83473713E-03  1.40373228E-02  6.88426223E-02
  2.32184443E-01  4.67941348E-01  3.62311985E-01 -1.19332420E-01 -1.60854152E-01
  1.14345644E+00  1.00000000E+00  1.00000000E+00  3.34946043E-02  2.34726953E-01
  8.13757326E-01  1.00000000E+00  3.34946043E-02  2.34726953E-01  8.13757326E-01
  1.00000000E+00  3.34946043E-02  2.34726953E-01  8.13757326E-01  1.00000000E+00
  3.34946043E-02  2.34726953E-01  8.13757326E-01  1.00000000E+00  3.34946043E-02
  2.34726953E-01  8.13757326E-01  1.00000000E+00  3.34946043E-02  2.34726953E-01
  8.13757326E-01  1.00000000E+00  3.34946043E-02  2.34726953E-01  8.13757326E-01
  1.00000000E+00
P(S=P) Contraction coefficients            R   N=          61
  0.00000000E+00  0.00000000E+00  0.00000000E+00  0.00000000E+00  0.00000000E+00
  0.00000000E+00  6.75797439E-02  3.23907296E-01  7.40895140E-01  1.00000000E+00
  0.00000000E+00  0.00000000E+00  0.00000000E+00  0.00000000E+00  0.00000000E+00
  0.00000000E+00  0.00000000E+00  6.89990666E-02  3.16423961E-01  7.44308291E-01
  1.00000000E+00  0.00000000E+00  0.00000000E+00  0.00000000E+00  0.00000000E+00
  0.00000000E+00  0.00000000E+00  0.00000000E+00  6.89990666E-02  3.16423961E-01
  7.44308291E-01  1.00000000E+00  0.00000000E+00  0.00000000E+00  0.00000000E+00
  0.00000000E+00  0.00000000E+00  0.00000000E+00  0.00000000E+00  0.00000000E+00
  0.00000000E+00  0.00000000E+00  0.00000000E+00  0.00000000E+00  0.00000000E+00
  0.00000000E+00  0.00000000E+00  0.00000000E+00  0.00000000E+00  0.00000000E+00
  0.00000000E+00  0.00000000E+00  0.00000000E+00  0.00000000E+00  0.00000000E+00
  0.00000000E+00  0.00000000E+00  0.00000000E+00  0.00000000E+00  0.00000000E+00
  0.00000000E+00
Coordinates of each shell                  R   N=          78
 -2.26389191E+00  1.57792132E+00  0.00000000E+00 -2.26389191E+00  1.57792132E+00
  0.00000000E+00 -2.26389191E+00  1.57792132E+00  0.00000000E+00 -2.26389191E+00
  1.57792132E+00  0.00000000E+00  0.00000000E+00  0.00000000E+00  0.00000000E+00
  0.00000000E+00  0.00000000E+00  0.00000000E+00  0.00000000E+00  0.00000000E+00
  0.00000000E+00  0.00000000E+00  0.00000000E+00  0.00000000E+00  2.36593712E+00
  1.64784119E+00  0.00000000E+00  2.36593712E+00  1.64784119E+00  0.00000000E+00
  2.36593712E+00  1.64784119E+00  0.00000000E+00  2.36593712E+00  1.64784119E+00
  0.00000000E+00 -1.76276787E+00  3.39851069E+00 -7.34432613E-02 -1.76276787E+00
  3.39851069E+00 -7.34432613E-02 -3.25323962E+00  1.26008537E+00  1.57836507E+00
 -3.25323962E+00  1.26008537E+00  1.57836507E+00 -1.73344578E-04 -1.01100346E+00
  1.75110939E+00 -1.73344578E-04 -1.01100346E+00  1.75110939E+00 -1.73344578E-04
 -1.01100346E+00 -1.75110939E+00 -1.73344578E-04 -1.01100346E+00 -1.75110939E+00
  1.82947633E+00  3.59738524E+00  0.00000000E+00  1.82947633E+00  3.59738524E+00
  0.00000000E+00  3.46378126E+00  1.25088322E+00  1.65096177E+00  3.46378126E+00
  1.25088322E+00  1.65096177E+00  3.46378126E+00  1.25088322E+00 -1.65096177E+00
  3.46378126E+00  1.25088322E+00 -1.65096177E+00
Constraint Structure                       R   N=          30
 -2.26389191E+00  1.57792132E+00  0.00000000E+00  0.00000000E+00  0.00000000E+00
  0.00000000E+00  2.36593712E+00  1.64784119E+00  0.00000000E+00 -1.76276787E+00
  3.39851069E+00 -7.34432613E-02 -3.25323962E+00  1.26008537E+00  1.57836507E+00
 -1.73344578E-04 -1.01100346E+00  1.75110939E+00 -1.73344578E-04 -1.01100346E+00
 -1.75110939E+00  1.82947633E+00  3.59738524E+00  0.00000000E+00  3.46378126E+00
  1.25088322E+00  1.65096177E+00  3.46378126E+00  1.25088322E+00 -1.65096177E+00
Num ILSW                                   I              100
ILSW                                       I   N=         100
           0           1           0           0           2           0
           0           0           0           0         402          -1
           0           0           0           0           0           0
           0           0           1           0           0           0
           1           1           0           0           0           0
           0           0      100000           0          -1           0
           0           0           0           0           0           0
           0           0           0           1           0           0
           0           0           1           0           0           0
           0           0           4          41           0           0
           0           0           5           0           0           0
           0           0           0           0           0           0
           0           0           0           0           0           0
           0           0           0           0           0           0
           0           0           0           0           0           0
           0           0           0           0           0           0
           0           0           0           0
Num RLSW                                   I               41
RLSW                                       R   N=          41
  8.00000000E-01  7.20000000E-01  1.00000000E+00  8.10000000E-01  2.00000000E-01
  0.00000000E+00  0.00000000E+00  1.00000000E+00  0.00000000E+00  0.00000000E+00
  0.00000000E+00  0.00000000E+00  1.00000000E+00  0.00000000E+00  0.00000000E+00
  0.00000000E+00  0.00000000E+00  1.00000000E+00  0.00000000E+00  0.00000000E+00
  0.00000000E+00  0.00000000E+00  1.00000000E+00  0.00000000E+00  0.00000000E+00
  0.00000000E+00  0.00000000E+00  1.00000000E+00  0.00000000E+00  0.00000000E+00
  0.00000000E+00  0.00000000E+00  1.00000000E+00  0.00000000E+00  0.00000000E+00
  0.00000000E+00  0.00000000E+00  0.00000000E+00  1.00000000E+00  1.00000000E+00
  0.00000000E+00
MxBond                                     I                4
NBond                                      I   N=          10
           3           4           4           1           1           1
           1           1           1           1
IBond                                      I   N=          40
           2           4           5           0           1           3
           6           7           2           8           9          10
           1           0           0           0           1           0
           0           0           2           0           0           0
           2           0           0           0           3           0
           0           0           3           0           0           0
           3           0           0           0
RBond                                      R   N=          40
  1.00000000E+00  1.00000000E+00  1.00000000E+00  0.00000000E+00  1.00000000E+00
  1.00000000E+00  1.00000000E+00  1.00000000E+00  1.00000000E+00  1.00000000E+00
  1.00000000E+00  1.00000000E+00  1.00000000E+00  0.00000000E+00  0.00000000E+00
  0.00000000E+00  1.00000000E+00  0.00000000E+00  0.00000000E+00  0.00000000E+00
  1.00000000E+00  0.00000000E+00  0.00000000E+00  0.00000000E+00  1.00000000E+00
  0.00000000E+00  0.00000000E+00  0.00000000E+00  1.00000000E+00  0.00000000E+00
  0.00000000E+00  0.00000000E+00  1.00000000E+00  0.00000000E+00  0.00000000E+00
  0.00000000E+00  1.00000000E+00  0.00000000E+00  0.00000000E+00  0.00000000E+00
Virial Ratio                               R      2.007356117680103E+00
SCF Energy                                 R     -1.351487278138598E+02
Total Energy                               R     -1.351487278138598E+02
RMS Density                                R      2.638984384011852E-09
External E-field                           R   N=          35
  0.00000000E+00  0.00000000E+00  0.00000000E+00  0.00000000E+00  0.00000000E+00
  0.00000000E+00  0.00000000E+00  0.00000000E+00  0.00000000E+00  0.00000000E+00
  0.00000000E+00  0.00000000E+00  0.00000000E+00  0.00000000E+00  0.00000000E+00
  0.00000000E+00  0.00000000E+00  0.00000000E+00  0.00000000E+00  0.00000000E+00
  0.00000000E+00  0.00000000E+00  0.00000000E+00  0.00000000E+00  0.00000000E+00
  0.00000000E+00  0.00000000E+00  0.00000000E+00  0.00000000E+00  0.00000000E+00
  0.00000000E+00  0.00000000E+00  0.00000000E+00  0.00000000E+00  0.00000000E+00
IOpCl                                      I                0
IROHF                                      I                0
Alpha Orbital Energies                     R   N=          59
 -1.42923503E+01 -1.01924167E+01 -1.01644646E+01 -8.76263023E-01 -7.29151551E-01
 -6.06283433E-01 -4.97150873E-01 -4.54039257E-01 -4.25027432E-01 -3.79989339E-01
 -3.54503359E-01 -3.42880096E-01 -2.16258559E-01  8.47276181E-02  1.13882602E-01
  1.29545148E-01  1.49325932E-01  1.91619613E-01  1.94034938E-01  2.43117704E-01
  2.63645655E-01  3.16633277E-01  5.25183506E-01  5.39924886E-01  5.55160037E-01
  6.26079646E-01  6.69639969E-01  7.33687467E-01  7.55355551E-01  8.22722145E-01
  8.39407814E-01  8.77789026E-01  8.93282562E-01  9.08983162E-01  9.47761777E-01
  9.67066967E-01  9.92034590E-01  1.00703439E+00  1.02637165E+00  1.30144508E+00
  1.41350394E+00  1.42555291E+00  1.63666651E+00  1.81766339E+00  1.93351668E+00
  1.96808179E+00  2.02101940E+00  2.11917715E+00  2.17443178E+00  2.25226079E+00
  2.27781655E+00  2.38703031E+00  2.41726149E+00  2.49386858E+00  2.64046641E+00
  2.74332514E+00  3.79571720E+00  4.20315715E+00  4.45697628E+00
Alpha MO coefficients                      R   N=        3481
  9.92678010E-01  3.47606259E-02  5.90720372E-04  2.79287167E-04  9.33240927E-04
  3.85280359E-03 -2.48345983E-04 -5.74090090E-05 -3.33448266E-04 -8.30528704E-03
 -8.23670839E-03 -8.23268866E-03  5.24675533E-05 -3.70300855E-05  2.65692092E-06
 -6.04947282E-06  9.06899858E-05 -2.41373925E-04  1.59943957E-04 -2.21512058E-05
  4.06765503E-05  2.72338716E-04  8.91066521E-06  1.92231191E-04  7.47060271E-05
  2.07046019E-05 -3.58233420E-05 -6.20362753E-05  7.21992021E-08 -1.29495604E-05
  4.20913032E-06  6.68675354E-05  3.68448961E-05  3.76510901E-06 -8.29883533E-06
 -2.93627637E-04  5.80141043E-05  5.65761447E-05 -1.88369132E-05 -4.74784749E-05
 -5.31382360E-06 -9.78888681E-06 -7.10209880E-06  5.07712164E-06  1.08943719E-05
  2.69642115E-04 -4.39138936E-04  2.60219785E-04 -3.86414356E-04 -5.82468226E-05
 -8.31473433E-05  1.36822955E-05 -5.10927310E-05 -9.09107731E-06  8.16735242E-05
  2.47825870E-05 -1.42618812E-06  1.10628135E-05  3.74499754E-05 -1.90889107E-04
 -4.10320593E-04 -1.53565342E-04  1.01339734E-04  2.48215801E-05  5.07983676E-03
  1.81121769E-03 -7.20527093E-04 -3.16729137E-05 -4.67591296E-04 -3.87281244E-04
 -2.17008243E-04  2.51961593E-04 -2.57291873E-05 -1.41820395E-05  9.93033924E-01
  5.02342234E-02 -1.08735187E-04  2.84172731E-04  7.18460041E-05 -2.05463957E-02
 -5.49655523E-04 -2.29799121E-03 -6.59948174E-05 -9.03307103E-03 -9.01719286E-03
 -8.74630022E-03 -4.84721220E-05 -8.10604791E-06 -6.92273403E-06  3.71723131E-03
 -3.09416937E-04  1.64271123E-05  9.96346360E-06 -1.15774711E-06  6.72763599E-03
 -2.45909924E-03 -1.17300606E-03  2.10959823E-05 -3.29173157E-04 -3.19555299E-04
 -1.89826273E-04 -1.64820799E-04 -5.98125208E-07 -1.90087350E-06 -2.02624142E-04
 -6.95895148E-05 -1.48630270E-04  2.13323237E-04  2.32299662E-05  3.03670681E-03
  3.15798413E-05  3.00023112E-03 -2.56874142E-04 -4.04093019E-04 -2.35267546E-04
 -1.84358579E-04 -2.30831685E-04 -1.74463844E-04 -3.51340046E-05 -1.41644344E-04
 -7.46556957E-05  1.40858036E-05  1.08920303E-06  1.73759896E-04  3.07948946E-05
  8.60199567E-05 -1.96600951E-05 -1.05418170E-05 -4.85832267E-05 -1.72785507E-04
  3.72822471E-05  5.21359531E-07 -5.22935596E-07 -4.02987462E-03 -5.68366010E-04
 -6.93032269E-05 -1.03852126E-04 -7.99216396E-07  5.22599861E-03  1.78002318E-03
  1.28376800E-03  1.31972054E-05 -3.24671666E-04 -2.45745303E-04 -1.06315685E-04
 -1.43580864E-04 -4.85357218E-07 -2.13815221E-07  9.92848248E-01  5.04986730E-02
  6.01595223E-05  4.13479269E-05  1.75887505E-05 -1.78427363E-02  8.90336615E-04
  5.43295287E-04 -1.79767242E-05 -9.32923047E-03 -9.26821666E-03 -9.20058031E-03
 -1.03942029E-04  1.44200074E-06  7.45399350E-08 -3.37889964E-05 -2.22222793E-04
  2.88170085E-06  2.04859091E-05 -1.75186090E-04 -1.75470601E-04 -1.73835317E-04
 -1.64210552E-04 -6.91975725E-05  3.01607942E-03 -6.82952788E-05  2.91722922E-03
 -6.35826775E-05  2.89881924E-03 -1.73912885E-01  3.58703191E-01  6.84824061E-02
  6.26594029E-03  6.47398514E-02  3.59221147E-01  3.24902098E-02  6.00888864E-03
  3.22256839E-02  6.30814015E-04  4.53384184E-03 -3.17702058E-03 -1.37545160E-04
 -7.45442046E-03 -3.66942549E-03 -1.06378514E-01  2.02533134E-01 -6.22083752E-02
  6.35575138E-02  8.11274036E-03  1.12126562E-01 -2.73502641E-03  1.38452076E-03
  3.28337769E-03  5.91851020E-03  7.63965372E-04 -3.72716212E-03 -1.05535170E-02
 -1.74097687E-03  9.65340183E-05 -4.64183365E-02  8.52093541E-02 -3.84540066E-02
 -1.21537694E-02  1.26766818E-03  6.23981268E-02 -1.04048277E-02 -3.51525408E-03
 -2.75381230E-03  4.40162555E-03  2.71342503E-04 -1.67674113E-03  2.62101592E-03
 -7.23156647E-05 -1.12677972E-05  1.16820525E-01  3.89105644E-03  1.13811300E-01
  5.93598910E-03  5.17542855E-02  7.42652463E-03  4.64898778E-02  4.38029308E-03
  2.88559497E-02  9.95721888E-03  2.03235927E-02  4.15895201E-03  1.94011944E-02
  1.02827354E-03  8.72488449E-02 -1.85852961E-01  4.19240830E-02 -4.36577072E-02
 -5.62871300E-02 -2.09491493E-01  1.48146916E-02 -2.39135387E-02 -2.71691012E-02
  9.02909204E-03 -3.32538693E-03 -2.94592784E-03 -5.54862331E-03  6.85979791E-03
  9.67644038E-04 -8.73800847E-02  1.70030112E-01  1.24176160E-01  5.60456398E-03
 -6.24707959E-03  1.44416514E-01  3.44206969E-02  1.12290557E-03  2.07548307E-03
 -3.06645262E-03 -2.97042738E-03  2.41363427E-03  1.46859281E-02  1.18763538E-03
 -6.61618149E-04 -1.63377438E-01  3.11398975E-01 -1.58223966E-02 -2.47363877E-02
 -2.66022250E-04  2.70283086E-01 -6.19816939E-04  4.95915341E-06 -6.16089825E-06
 -1.35730913E-03  7.19777566E-04  1.20824692E-03 -2.65715709E-04  1.98108974E-04
  6.66923742E-06 -7.07554332E-02 -5.18016259E-03 -8.93204456E-02 -1.67701290E-02
  5.62382353E-02  1.16498185E-02  5.90287934E-02  1.44047087E-02  9.96638347E-02
  1.76752545E-02  1.07199593E-01  2.70645860E-02  1.06782146E-01  2.67222551E-02
  4.11091256E-02 -8.83837475E-02  7.96884478E-02 -1.67063323E-01 -3.97677388E-02
 -1.14582203E-01  3.09196440E-02 -7.22590830E-02 -2.19360748E-02  8.59303670E-03
 -3.49430822E-03 -1.98621106E-03 -1.36691385E-02  5.42656987E-03 -3.94296560E-03
 -1.38856413E-01  2.83864289E-01 -5.05439422E-02 -1.05510143E-01 -5.10260178E-04
  2.73082349E-01 -6.01153334E-03 -3.57245426E-02  8.96062534E-03 -1.29958199E-02
 -9.51838935E-03  1.11847952E-02 -3.56680069E-03  9.76126351E-05 -1.20368040E-03
  9.79429294E-02 -1.92627425E-01 -9.23151170E-02 -1.00909872E-01 -5.02504986E-04
 -2.00986165E-01 -2.53627957E-02 -2.90773275E-02 -5.01535733E-03  7.05192194E-03
  8.19843386E-04 -4.31674038E-03  1.34341785E-02  1.38447166E-06  1.52970597E-04
 -1.09889495E-01 -4.74376269E-02 -5.60128450E-02 -1.61444818E-02  1.34940059E-01
  5.16246355E-02  1.31927985E-01  5.10183890E-02 -1.16387638E-01 -5.69709403E-02
 -8.99217617E-02 -3.33396989E-02 -8.96379834E-02 -3.56180491E-02  2.54755819E-03
 -5.02101758E-03 -2.05741648E-01 -1.64472735E-01  2.38419317E-01 -1.38928008E-02
 -9.89021058E-02 -7.83381070E-02  1.16252286E-01 -8.68699321E-03 -1.17150466E-02
  2.28866193E-02 -6.68801992E-03 -4.42334420E-03 -7.78005393E-03  1.40110515E-02
 -3.24386143E-02  3.60271147E-03 -1.06138573E-01  2.34102801E-01 -2.62817847E-02
 -5.74823969E-03 -2.88609107E-02  8.99911399E-02  6.44309564E-03 -8.54902905E-03
  5.70669646E-03  3.75969050E-03 -3.82088223E-03 -5.40902667E-03 -1.86206033E-02
  3.95385485E-02  1.12429423E-01 -4.04616273E-02  1.19939607E-01  4.17224992E-02
  5.68802517E-02 -1.89297171E-02  5.22208466E-02 -3.19269871E-03 -1.80285247E-03
  7.71967520E-03 -4.91570383E-04  1.09544285E-03 -5.26321053E-03 -1.36923774E-01
 -8.19688565E-02  1.94685821E-01  1.15964603E-01  1.27724825E-01  9.60931566E-02
 -8.78086698E-02 -4.52086823E-02 -2.89281222E-02 -2.81231356E-02  1.09734945E-01
  6.60804987E-02  2.21559737E-03 -2.16572380E-03  2.20949271E-02 -5.14381247E-02
  1.70285610E-01  1.38837326E-01 -4.13893606E-02 -6.48214789E-02  9.68133226E-02
  6.70038947E-02 -1.49167960E-02  6.03363738E-03  4.52271730E-03 -1.04425331E-02
  5.79620947E-03  1.53661167E-02  1.86820882E-03 -1.42652637E-02  3.11917779E-02
  3.37088730E-02  1.00566316E-01  2.65423630E-01  2.04770404E-02  1.41495023E-02
  3.86456676E-02  1.03650071E-01 -8.15992299E-03  7.15091652E-03 -3.46989657E-03
  9.30569160E-05  7.13361000E-03 -1.01590775E-02  1.29358204E-02 -2.67631506E-02
 -1.53897300E-01  6.00148301E-02  2.36550473E-01 -3.33058562E-02 -7.30834488E-02
  2.61057773E-02  1.09584492E-01  2.16682639E-03  4.55536579E-03 -9.03944088E-03
  1.11020399E-03  6.74327670E-03 -8.68357476E-03  9.37807728E-02  6.60749962E-02
 -1.15713994E-01 -7.45308963E-02  1.16318014E-01  8.15264714E-02 -1.44582004E-01
 -1.06177981E-01  5.32123517E-02  4.78278620E-02  4.48124115E-02  3.45133120E-02
 -1.82962558E-01 -1.26814288E-01  1.95123907E-03 -7.32334130E-03 -1.16526848E-01
  3.37469617E-01 -1.17159841E-02  3.38674383E-03 -6.09365541E-02  1.72291351E-01
 -7.18309401E-04 -8.69959576E-03  1.63841131E-02 -1.12391508E-03  1.03252890E-02
 -3.43939552E-03  9.54786485E-03 -6.34691673E-03  1.18556876E-02  2.55492724E-01
 -1.40316899E-01  9.82869928E-03  9.95098049E-03  1.06224400E-01 -5.73868815E-02
 -9.76247717E-03 -8.19470714E-03 -4.45142576E-04  1.01686838E-02  6.90531273E-03
  1.64871395E-03 -2.91385620E-04  1.07400040E-02 -2.20809012E-02  4.87461253E-02
 -2.85077066E-01  1.98684965E-02 -3.46872482E-02  1.79866295E-02 -1.30252028E-01
  1.52320952E-02  1.50852283E-03 -1.02342165E-02  6.20560693E-03  8.38017301E-03
  7.99895340E-04 -9.32943326E-04  1.74550121E-01  1.15583805E-01 -5.29255737E-03
 -3.13854047E-03  6.14202580E-02  5.53288689E-02  4.78440958E-02  3.59093050E-02
 -1.80293121E-01 -1.30356070E-01  4.99571368E-02  4.18761877E-02  2.97526625E-02
  2.96516534E-02 -3.57334179E-02  8.36592230E-02  1.33105928E-01 -9.38548108E-02
 -1.87604663E-01  1.31766747E-01  5.23746393E-02 -4.83508673E-02 -1.11713556E-01
  1.37409751E-03  4.94124419E-03 -1.31416878E-02 -4.11992037E-03  1.07168459E-03
 -2.29455399E-03  1.38164313E-02 -3.10103950E-02 -1.97899565E-01  1.43472426E-02
 -9.88143422E-02 -1.49699359E-02 -7.75451542E-02  1.19244242E-02 -4.36769697E-02
  1.07618833E-02 -3.75034841E-03 -4.94945187E-03 -1.37917461E-02  1.16335957E-02
  5.10710344E-03  2.08321591E-03 -4.39915027E-03  2.66645347E-01 -9.87292110E-02
  2.56026416E-01 -1.79542112E-02  1.29389394E-01 -4.36595157E-02  1.16824174E-01
  2.99146223E-03 -1.44293574E-02  1.37868799E-02 -4.06282774E-03  1.67493906E-02
 -3.44548970E-03 -5.78916781E-03 -2.54504060E-02 -1.06666752E-01 -9.51686825E-02
 -7.71255786E-02 -6.30088199E-02  2.92083412E-02  2.29185677E-02 -1.17529542E-01
 -1.00523915E-01  2.51000217E-01  2.22492221E-01 -3.21972037E-02 -2.94861168E-02
 -9.91559856E-03  2.45266585E-02  2.15830963E-01 -8.03083310E-02  2.40730663E-03
  5.21133350E-02  1.23476770E-01 -4.05278629E-02  7.74486396E-03  7.71054800E-03
 -6.32898376E-03 -4.98993991E-03 -1.32661265E-03  1.21097108E-02 -5.58907345E-03
  2.91785618E-03 -3.94611588E-03 -5.16551865E-02  2.44737239E-01  1.94339475E-01
 -7.32597053E-03 -1.59919430E-02  1.21810148E-01  9.66976631E-02  1.45290139E-02
 -3.22085528E-03 -1.48889831E-02 -8.66910166E-03 -5.30833796E-03 -1.35977980E-02
 -6.61134743E-03  1.58060430E-02  5.99250159E-02 -2.26998995E-01 -2.16597411E-01
  1.93533704E-02  3.40548000E-02 -1.07290531E-01 -1.09197045E-01  9.17459026E-03
 -1.86513724E-02  6.95705558E-03  2.03950257E-03 -1.69752392E-02  5.57755080E-04
 -2.67521957E-02 -5.34321846E-02 -6.33401267E-02 -6.46904766E-02  1.62069717E-02
  7.86286787E-03 -2.00789224E-01 -1.74168415E-01 -1.66020623E-01 -1.58516301E-01
 -6.39503352E-02 -6.18556634E-02  1.85832399E-01  1.63553391E-01 -1.26449122E-03
  1.99328006E-03 -6.70689181E-02 -1.18788855E-01  1.10762428E-01  1.44804155E-02
 -3.46931764E-02 -6.06153731E-02  6.50803336E-02  7.37604853E-03 -1.77505617E-02
  9.84324784E-03 -1.01488618E-03 -7.72317036E-03  4.80515851E-04 -5.96704956E-03
  1.90436836E-02  1.98728157E-01  2.83304301E-01 -1.68092868E-01  9.78451949E-03
  8.57678356E-02  1.28804621E-01 -7.32094966E-02  1.42214397E-02 -4.16715401E-03
 -1.46740723E-02  8.55138925E-03  6.91338786E-04  1.44586059E-02 -2.34067663E-02
  5.02273777E-02 -2.53294428E-01 -1.93260213E-01  1.45059800E-01  9.80522539E-02
 -1.27213942E-01 -9.37472139E-02  7.58396338E-02  5.89679428E-03 -6.00301965E-03
 -6.75690121E-03  8.52273761E-03  1.22568928E-02  5.96055851E-04 -1.09854033E-01
 -1.06021094E-01  1.06798038E-01  8.68084428E-02 -2.03752189E-01 -2.02397123E-01
  3.76676025E-05 -6.96901166E-03 -7.47250785E-02 -9.74242554E-02  3.83900486E-02
  2.31019080E-02 -1.31906958E-01 -1.31676366E-01  5.61603540E-02 -1.24936068E-01
  3.13185326E-01  1.23036455E-01  4.29762727E-01 -2.24761319E-01  2.86264932E-01
  9.44100324E-02  3.75239481E-01  9.70019440E-04 -3.57022564E-03  1.80139900E-02
  4.01133564E-03  1.75452575E-02  1.30854091E-02 -9.69388548E-03  2.60118973E-02
 -1.10658171E-01 -1.27116742E-02 -1.17757133E-01 -1.47794355E-02 -8.58204898E-03
 -1.02293518E-02 -3.33051739E-02 -1.23869454E-02  6.84870713E-03  3.84916616E-03
 -8.16892956E-03 -1.48959639E-02  2.04919814E-02  2.14685210E-02 -4.17868294E-02
  1.20810617E-01  2.32832471E-02  2.71065617E-02 -1.31432361E-01  6.77623439E-02
  2.56112701E-02  4.25393748E-02  4.35454590E-03 -4.90639755E-03  3.98418177E-03
 -3.29764151E-03  4.20547031E-03  4.13190702E-03  6.26236189E-02  4.38423159E-02
  5.55609524E-02  5.24229416E-02 -7.36902851E-02 -1.01187299E-01  1.25720939E-01
  1.65156414E-01 -2.35305756E-02  8.88896497E-03  4.86331650E-02  6.07414334E-02
  1.12485490E-02  5.60953302E-02 -7.90803081E-02  1.14276951E-01 -3.72982560E-02
  5.99665972E-02  1.32145617E-01  1.08343668E+00 -9.28472873E-02  1.54998636E-01
  3.24306610E-01 -2.22579046E-02 -1.02560079E-02 -1.97276714E-02 -2.63112995E-03
  9.93202877E-04  2.78081617E-03 -5.70518688E-02  7.34284720E-02  5.99064631E-02
 -1.64237254E-01  8.90945735E-02  9.32399889E-01  1.29465564E-01 -4.20050887E-01
  2.02221470E-01  1.95808513E-03 -1.41230329E-03 -1.40245913E-02 -4.43002206E-03
 -4.47373508E-04  6.42601351E-03 -5.75048657E-02  7.79406303E-02  8.05212016E-02
  4.69949399E-02  4.05795036E-02  8.65396476E-01  3.28946860E-01  1.26492086E-01
  1.28402362E-01 -6.05708497E-03  8.65712829E-03 -1.35132449E-02  5.84883371E-03
 -5.48598249E-03  1.25534105E-03 -1.60366944E-02 -4.94275878E-01 -6.65294039E-02
 -9.35947175E-01 -3.78735061E-02 -9.10390492E-01 -3.85452735E-03 -3.60758163E-01